    1C
    1UUSER                                                              
    1UDATE              18.february.2022                                
    1UTIME              16:04:56                                        
    1UHOST                                                              
    1UPGM               CalculiX                                        
    1UVERSION           Version 2.12                             
    1UCOMPILETIME       Tue, Apr 04, 2017  8:36:16 PM                    
    1UDIR                                                               
    1UDBN                                                               
    1UMAT    1SI1                                                       
    1UMAT    2SUBSYSTEM1_MATERIAL                                       
    1UMAT    3SUBSYSTEM2_MATERIAL                                       
    2C                         65456                                     1
 -1         1 5.00000E+02-5.00000E+02-5.00000E+02
 -1         2 5.00000E+02-5.00000E+02 5.00000E+02
 -1         3 5.00000E+02 5.00000E+02 5.00000E+02
 -1         4 5.00000E+02 5.00000E+02-5.00000E+02
 -1         5 1.50000E+03-5.00000E+02 5.00000E+02
 -1         6 1.50000E+03-5.00000E+02-5.00000E+02
 -1         7 1.50000E+03 5.00000E+02 5.00000E+02
 -1         8 1.50000E+03 5.00000E+02-5.00000E+02
 -1         9 5.00000E+02-5.00000E+02-4.50000E+02
 -1        10 5.00000E+02-5.00000E+02-4.00000E+02
 -1        11 5.00000E+02-5.00000E+02-3.50000E+02
 -1        12 5.00000E+02-5.00000E+02-3.00000E+02
 -1        13 5.00000E+02-5.00000E+02-2.50000E+02
 -1        14 5.00000E+02-5.00000E+02-2.00000E+02
 -1        15 5.00000E+02-5.00000E+02-1.50000E+02
 -1        16 5.00000E+02-5.00000E+02-1.00000E+02
 -1        17 5.00000E+02-5.00000E+02-5.00000E+01
 -1        18 5.00000E+02-5.00000E+02 0.00000E+00
 -1        19 5.00000E+02-5.00000E+02 5.00000E+01
 -1        20 5.00000E+02-5.00000E+02 1.00000E+02
 -1        21 5.00000E+02-5.00000E+02 1.50000E+02
 -1        22 5.00000E+02-5.00000E+02 2.00000E+02
 -1        23 5.00000E+02-5.00000E+02 2.50000E+02
 -1        24 5.00000E+02-5.00000E+02 3.00000E+02
 -1        25 5.00000E+02-5.00000E+02 3.50000E+02
 -1        26 5.00000E+02-5.00000E+02 4.00000E+02
 -1        27 5.00000E+02-5.00000E+02 4.50000E+02
 -1        28 5.00000E+02-5.00000E+02-4.75000E+02
 -1        29 5.00000E+02-5.00000E+02-4.25000E+02
 -1        30 5.00000E+02-5.00000E+02-3.75000E+02
 -1        31 5.00000E+02-5.00000E+02-3.25000E+02
 -1        32 5.00000E+02-5.00000E+02-2.75000E+02
 -1        33 5.00000E+02-5.00000E+02-2.25000E+02
 -1        34 5.00000E+02-5.00000E+02-1.75000E+02
 -1        35 5.00000E+02-5.00000E+02-1.25000E+02
 -1        36 5.00000E+02-5.00000E+02-7.50000E+01
 -1        37 5.00000E+02-5.00000E+02-2.50000E+01
 -1        38 5.00000E+02-5.00000E+02 2.50000E+01
 -1        39 5.00000E+02-5.00000E+02 7.50000E+01
 -1        40 5.00000E+02-5.00000E+02 1.25000E+02
 -1        41 5.00000E+02-5.00000E+02 1.75000E+02
 -1        42 5.00000E+02-5.00000E+02 2.25000E+02
 -1        43 5.00000E+02-5.00000E+02 2.75000E+02
 -1        44 5.00000E+02-5.00000E+02 3.25000E+02
 -1        45 5.00000E+02-5.00000E+02 3.75000E+02
 -1        46 5.00000E+02-5.00000E+02 4.25000E+02
 -1        47 5.00000E+02-5.00000E+02 4.75000E+02
 -1        48 5.00000E+02-4.50000E+02 5.00000E+02
 -1        49 5.00000E+02-4.00000E+02 5.00000E+02
 -1        50 5.00000E+02-3.50000E+02 5.00000E+02
 -1        51 5.00000E+02-3.00000E+02 5.00000E+02
 -1        52 5.00000E+02-2.50000E+02 5.00000E+02
 -1        53 5.00000E+02-2.00000E+02 5.00000E+02
 -1        54 5.00000E+02-1.50000E+02 5.00000E+02
 -1        55 5.00000E+02-1.00000E+02 5.00000E+02
 -1        56 5.00000E+02-5.00000E+01 5.00000E+02
 -1        57 5.00000E+02 0.00000E+00 5.00000E+02
 -1        58 5.00000E+02 5.00000E+01 5.00000E+02
 -1        59 5.00000E+02 1.00000E+02 5.00000E+02
 -1        60 5.00000E+02 1.50000E+02 5.00000E+02
 -1        61 5.00000E+02 2.00000E+02 5.00000E+02
 -1        62 5.00000E+02 2.50000E+02 5.00000E+02
 -1        63 5.00000E+02 3.00000E+02 5.00000E+02
 -1        64 5.00000E+02 3.50000E+02 5.00000E+02
 -1        65 5.00000E+02 4.00000E+02 5.00000E+02
 -1        66 5.00000E+02 4.50000E+02 5.00000E+02
 -1        67 5.00000E+02-4.75000E+02 5.00000E+02
 -1        68 5.00000E+02-4.25000E+02 5.00000E+02
 -1        69 5.00000E+02-3.75000E+02 5.00000E+02
 -1        70 5.00000E+02-3.25000E+02 5.00000E+02
 -1        71 5.00000E+02-2.75000E+02 5.00000E+02
 -1        72 5.00000E+02-2.25000E+02 5.00000E+02
 -1        73 5.00000E+02-1.75000E+02 5.00000E+02
 -1        74 5.00000E+02-1.25000E+02 5.00000E+02
 -1        75 5.00000E+02-7.50000E+01 5.00000E+02
 -1        76 5.00000E+02-2.50000E+01 5.00000E+02
 -1        77 5.00000E+02 2.50000E+01 5.00000E+02
 -1        78 5.00000E+02 7.50000E+01 5.00000E+02
 -1        79 5.00000E+02 1.25000E+02 5.00000E+02
 -1        80 5.00000E+02 1.75000E+02 5.00000E+02
 -1        81 5.00000E+02 2.25000E+02 5.00000E+02
 -1        82 5.00000E+02 2.75000E+02 5.00000E+02
 -1        83 5.00000E+02 3.25000E+02 5.00000E+02
 -1        84 5.00000E+02 3.75000E+02 5.00000E+02
 -1        85 5.00000E+02 4.25000E+02 5.00000E+02
 -1        86 5.00000E+02 4.75000E+02 5.00000E+02
 -1        87 5.00000E+02 5.00000E+02-4.50000E+02
 -1        88 5.00000E+02 5.00000E+02-4.00000E+02
 -1        89 5.00000E+02 5.00000E+02-3.50000E+02
 -1        90 5.00000E+02 5.00000E+02-3.00000E+02
 -1        91 5.00000E+02 5.00000E+02-2.50000E+02
 -1        92 5.00000E+02 5.00000E+02-2.00000E+02
 -1        93 5.00000E+02 5.00000E+02-1.50000E+02
 -1        94 5.00000E+02 5.00000E+02-1.00000E+02
 -1        95 5.00000E+02 5.00000E+02-5.00000E+01
 -1        96 5.00000E+02 5.00000E+02 0.00000E+00
 -1        97 5.00000E+02 5.00000E+02 5.00000E+01
 -1        98 5.00000E+02 5.00000E+02 1.00000E+02
 -1        99 5.00000E+02 5.00000E+02 1.50000E+02
 -1       100 5.00000E+02 5.00000E+02 2.00000E+02
 -1       101 5.00000E+02 5.00000E+02 2.50000E+02
 -1       102 5.00000E+02 5.00000E+02 3.00000E+02
 -1       103 5.00000E+02 5.00000E+02 3.50000E+02
 -1       104 5.00000E+02 5.00000E+02 4.00000E+02
 -1       105 5.00000E+02 5.00000E+02 4.50000E+02
 -1       106 5.00000E+02 5.00000E+02-4.75000E+02
 -1       107 5.00000E+02 5.00000E+02-4.25000E+02
 -1       108 5.00000E+02 5.00000E+02-3.75000E+02
 -1       109 5.00000E+02 5.00000E+02-3.25000E+02
 -1       110 5.00000E+02 5.00000E+02-2.75000E+02
 -1       111 5.00000E+02 5.00000E+02-2.25000E+02
 -1       112 5.00000E+02 5.00000E+02-1.75000E+02
 -1       113 5.00000E+02 5.00000E+02-1.25000E+02
 -1       114 5.00000E+02 5.00000E+02-7.50000E+01
 -1       115 5.00000E+02 5.00000E+02-2.50000E+01
 -1       116 5.00000E+02 5.00000E+02 2.50000E+01
 -1       117 5.00000E+02 5.00000E+02 7.50000E+01
 -1       118 5.00000E+02 5.00000E+02 1.25000E+02
 -1       119 5.00000E+02 5.00000E+02 1.75000E+02
 -1       120 5.00000E+02 5.00000E+02 2.25000E+02
 -1       121 5.00000E+02 5.00000E+02 2.75000E+02
 -1       122 5.00000E+02 5.00000E+02 3.25000E+02
 -1       123 5.00000E+02 5.00000E+02 3.75000E+02
 -1       124 5.00000E+02 5.00000E+02 4.25000E+02
 -1       125 5.00000E+02 5.00000E+02 4.75000E+02
 -1       126 5.00000E+02-4.50000E+02-5.00000E+02
 -1       127 5.00000E+02-4.00000E+02-5.00000E+02
 -1       128 5.00000E+02-3.50000E+02-5.00000E+02
 -1       129 5.00000E+02-3.00000E+02-5.00000E+02
 -1       130 5.00000E+02-2.50000E+02-5.00000E+02
 -1       131 5.00000E+02-2.00000E+02-5.00000E+02
 -1       132 5.00000E+02-1.50000E+02-5.00000E+02
 -1       133 5.00000E+02-1.00000E+02-5.00000E+02
 -1       134 5.00000E+02-5.00000E+01-5.00000E+02
 -1       135 5.00000E+02 0.00000E+00-5.00000E+02
 -1       136 5.00000E+02 5.00000E+01-5.00000E+02
 -1       137 5.00000E+02 1.00000E+02-5.00000E+02
 -1       138 5.00000E+02 1.50000E+02-5.00000E+02
 -1       139 5.00000E+02 2.00000E+02-5.00000E+02
 -1       140 5.00000E+02 2.50000E+02-5.00000E+02
 -1       141 5.00000E+02 3.00000E+02-5.00000E+02
 -1       142 5.00000E+02 3.50000E+02-5.00000E+02
 -1       143 5.00000E+02 4.00000E+02-5.00000E+02
 -1       144 5.00000E+02 4.50000E+02-5.00000E+02
 -1       145 5.00000E+02-4.75000E+02-5.00000E+02
 -1       146 5.00000E+02-4.25000E+02-5.00000E+02
 -1       147 5.00000E+02-3.75000E+02-5.00000E+02
 -1       148 5.00000E+02-3.25000E+02-5.00000E+02
 -1       149 5.00000E+02-2.75000E+02-5.00000E+02
 -1       150 5.00000E+02-2.25000E+02-5.00000E+02
 -1       151 5.00000E+02-1.75000E+02-5.00000E+02
 -1       152 5.00000E+02-1.25000E+02-5.00000E+02
 -1       153 5.00000E+02-7.50000E+01-5.00000E+02
 -1       154 5.00000E+02-2.50000E+01-5.00000E+02
 -1       155 5.00000E+02 2.50000E+01-5.00000E+02
 -1       156 5.00000E+02 7.50000E+01-5.00000E+02
 -1       157 5.00000E+02 1.25000E+02-5.00000E+02
 -1       158 5.00000E+02 1.75000E+02-5.00000E+02
 -1       159 5.00000E+02 2.25000E+02-5.00000E+02
 -1       160 5.00000E+02 2.75000E+02-5.00000E+02
 -1       161 5.00000E+02 3.25000E+02-5.00000E+02
 -1       162 5.00000E+02 3.75000E+02-5.00000E+02
 -1       163 5.00000E+02 4.25000E+02-5.00000E+02
 -1       164 5.00000E+02 4.75000E+02-5.00000E+02
 -1       165 1.50000E+03-5.00000E+02-4.00000E+02
 -1       166 1.50000E+03-5.00000E+02-3.00000E+02
 -1       167 1.50000E+03-5.00000E+02-2.00000E+02
 -1       168 1.50000E+03-5.00000E+02-1.00000E+02
 -1       169 1.50000E+03-5.00000E+02 0.00000E+00
 -1       170 1.50000E+03-5.00000E+02 1.00000E+02
 -1       171 1.50000E+03-5.00000E+02 2.00000E+02
 -1       172 1.50000E+03-5.00000E+02 3.00000E+02
 -1       173 1.50000E+03-5.00000E+02 4.00000E+02
 -1       174 1.50000E+03-5.00000E+02-4.50000E+02
 -1       175 1.50000E+03-5.00000E+02-3.50000E+02
 -1       176 1.50000E+03-5.00000E+02-2.50000E+02
 -1       177 1.50000E+03-5.00000E+02-1.50000E+02
 -1       178 1.50000E+03-5.00000E+02-5.00000E+01
 -1       179 1.50000E+03-5.00000E+02 5.00000E+01
 -1       180 1.50000E+03-5.00000E+02 1.50000E+02
 -1       181 1.50000E+03-5.00000E+02 2.50000E+02
 -1       182 1.50000E+03-5.00000E+02 3.50000E+02
 -1       183 1.50000E+03-5.00000E+02 4.50000E+02
 -1       184 1.50000E+03-4.00000E+02 5.00000E+02
 -1       185 1.50000E+03-3.00000E+02 5.00000E+02
 -1       186 1.50000E+03-2.00000E+02 5.00000E+02
 -1       187 1.50000E+03-1.00000E+02 5.00000E+02
 -1       188 1.50000E+03 0.00000E+00 5.00000E+02
 -1       189 1.50000E+03 1.00000E+02 5.00000E+02
 -1       190 1.50000E+03 2.00000E+02 5.00000E+02
 -1       191 1.50000E+03 3.00000E+02 5.00000E+02
 -1       192 1.50000E+03 4.00000E+02 5.00000E+02
 -1       193 1.50000E+03-4.50000E+02 5.00000E+02
 -1       194 1.50000E+03-3.50000E+02 5.00000E+02
 -1       195 1.50000E+03-2.50000E+02 5.00000E+02
 -1       196 1.50000E+03-1.50000E+02 5.00000E+02
 -1       197 1.50000E+03-5.00000E+01 5.00000E+02
 -1       198 1.50000E+03 5.00000E+01 5.00000E+02
 -1       199 1.50000E+03 1.50000E+02 5.00000E+02
 -1       200 1.50000E+03 2.50000E+02 5.00000E+02
 -1       201 1.50000E+03 3.50000E+02 5.00000E+02
 -1       202 1.50000E+03 4.50000E+02 5.00000E+02
 -1       203 1.50000E+03 5.00000E+02-4.00000E+02
 -1       204 1.50000E+03 5.00000E+02-3.00000E+02
 -1       205 1.50000E+03 5.00000E+02-2.00000E+02
 -1       206 1.50000E+03 5.00000E+02-1.00000E+02
 -1       207 1.50000E+03 5.00000E+02 0.00000E+00
 -1       208 1.50000E+03 5.00000E+02 1.00000E+02
 -1       209 1.50000E+03 5.00000E+02 2.00000E+02
 -1       210 1.50000E+03 5.00000E+02 3.00000E+02
 -1       211 1.50000E+03 5.00000E+02 4.00000E+02
 -1       212 1.50000E+03 5.00000E+02-4.50000E+02
 -1       213 1.50000E+03 5.00000E+02-3.50000E+02
 -1       214 1.50000E+03 5.00000E+02-2.50000E+02
 -1       215 1.50000E+03 5.00000E+02-1.50000E+02
 -1       216 1.50000E+03 5.00000E+02-5.00000E+01
 -1       217 1.50000E+03 5.00000E+02 5.00000E+01
 -1       218 1.50000E+03 5.00000E+02 1.50000E+02
 -1       219 1.50000E+03 5.00000E+02 2.50000E+02
 -1       220 1.50000E+03 5.00000E+02 3.50000E+02
 -1       221 1.50000E+03 5.00000E+02 4.50000E+02
 -1       222 1.50000E+03-4.00000E+02-5.00000E+02
 -1       223 1.50000E+03-3.00000E+02-5.00000E+02
 -1       224 1.50000E+03-2.00000E+02-5.00000E+02
 -1       225 1.50000E+03-1.00000E+02-5.00000E+02
 -1       226 1.50000E+03 0.00000E+00-5.00000E+02
 -1       227 1.50000E+03 1.00000E+02-5.00000E+02
 -1       228 1.50000E+03 2.00000E+02-5.00000E+02
 -1       229 1.50000E+03 3.00000E+02-5.00000E+02
 -1       230 1.50000E+03 4.00000E+02-5.00000E+02
 -1       231 1.50000E+03-4.50000E+02-5.00000E+02
 -1       232 1.50000E+03-3.50000E+02-5.00000E+02
 -1       233 1.50000E+03-2.50000E+02-5.00000E+02
 -1       234 1.50000E+03-1.50000E+02-5.00000E+02
 -1       235 1.50000E+03-5.00000E+01-5.00000E+02
 -1       236 1.50000E+03 5.00000E+01-5.00000E+02
 -1       237 1.50000E+03 1.50000E+02-5.00000E+02
 -1       238 1.50000E+03 2.50000E+02-5.00000E+02
 -1       239 1.50000E+03 3.50000E+02-5.00000E+02
 -1       240 1.50000E+03 4.50000E+02-5.00000E+02
 -1       241 5.56859E+02-5.00000E+02-5.00000E+02
 -1       242 6.35756E+02-5.00000E+02-5.00000E+02
 -1       243 7.31566E+02-5.00000E+02-5.00000E+02
 -1       244 8.27620E+02-5.00000E+02-5.00000E+02
 -1       245 9.23674E+02-5.00000E+02-5.00000E+02
 -1       246 1.01973E+03-5.00000E+02-5.00000E+02
 -1       247 1.11578E+03-5.00000E+02-5.00000E+02
 -1       248 1.21184E+03-5.00000E+02-5.00000E+02
 -1       249 1.30789E+03-5.00000E+02-5.00000E+02
 -1       250 1.40395E+03-5.00000E+02-5.00000E+02
 -1       251 5.28430E+02-5.00000E+02-5.00000E+02
 -1       252 5.96308E+02-5.00000E+02-5.00000E+02
 -1       253 6.83661E+02-5.00000E+02-5.00000E+02
 -1       254 7.79593E+02-5.00000E+02-5.00000E+02
 -1       255 8.75647E+02-5.00000E+02-5.00000E+02
 -1       256 9.71702E+02-5.00000E+02-5.00000E+02
 -1       257 1.06776E+03-5.00000E+02-5.00000E+02
 -1       258 1.16381E+03-5.00000E+02-5.00000E+02
 -1       259 1.25986E+03-5.00000E+02-5.00000E+02
 -1       260 1.35592E+03-5.00000E+02-5.00000E+02
 -1       261 1.45197E+03-5.00000E+02-5.00000E+02
 -1       262 5.56859E+02-5.00000E+02 5.00000E+02
 -1       263 6.35756E+02-5.00000E+02 5.00000E+02
 -1       264 7.31566E+02-5.00000E+02 5.00000E+02
 -1       265 8.27620E+02-5.00000E+02 5.00000E+02
 -1       266 9.23674E+02-5.00000E+02 5.00000E+02
 -1       267 1.01973E+03-5.00000E+02 5.00000E+02
 -1       268 1.11578E+03-5.00000E+02 5.00000E+02
 -1       269 1.21184E+03-5.00000E+02 5.00000E+02
 -1       270 1.30789E+03-5.00000E+02 5.00000E+02
 -1       271 1.40395E+03-5.00000E+02 5.00000E+02
 -1       272 5.28430E+02-5.00000E+02 5.00000E+02
 -1       273 5.96308E+02-5.00000E+02 5.00000E+02
 -1       274 6.83661E+02-5.00000E+02 5.00000E+02
 -1       275 7.79593E+02-5.00000E+02 5.00000E+02
 -1       276 8.75647E+02-5.00000E+02 5.00000E+02
 -1       277 9.71702E+02-5.00000E+02 5.00000E+02
 -1       278 1.06776E+03-5.00000E+02 5.00000E+02
 -1       279 1.16381E+03-5.00000E+02 5.00000E+02
 -1       280 1.25986E+03-5.00000E+02 5.00000E+02
 -1       281 1.35592E+03-5.00000E+02 5.00000E+02
 -1       282 1.45197E+03-5.00000E+02 5.00000E+02
 -1       283 5.56859E+02 5.00000E+02-5.00000E+02
 -1       284 6.35756E+02 5.00000E+02-5.00000E+02
 -1       285 7.31566E+02 5.00000E+02-5.00000E+02
 -1       286 8.27620E+02 5.00000E+02-5.00000E+02
 -1       287 9.23674E+02 5.00000E+02-5.00000E+02
 -1       288 1.01973E+03 5.00000E+02-5.00000E+02
 -1       289 1.11578E+03 5.00000E+02-5.00000E+02
 -1       290 1.21184E+03 5.00000E+02-5.00000E+02
 -1       291 1.30789E+03 5.00000E+02-5.00000E+02
 -1       292 1.40395E+03 5.00000E+02-5.00000E+02
 -1       293 5.28430E+02 5.00000E+02-5.00000E+02
 -1       294 5.96308E+02 5.00000E+02-5.00000E+02
 -1       295 6.83661E+02 5.00000E+02-5.00000E+02
 -1       296 7.79593E+02 5.00000E+02-5.00000E+02
 -1       297 8.75647E+02 5.00000E+02-5.00000E+02
 -1       298 9.71702E+02 5.00000E+02-5.00000E+02
 -1       299 1.06776E+03 5.00000E+02-5.00000E+02
 -1       300 1.16381E+03 5.00000E+02-5.00000E+02
 -1       301 1.25986E+03 5.00000E+02-5.00000E+02
 -1       302 1.35592E+03 5.00000E+02-5.00000E+02
 -1       303 1.45197E+03 5.00000E+02-5.00000E+02
 -1       304 5.56859E+02 5.00000E+02 5.00000E+02
 -1       305 6.35756E+02 5.00000E+02 5.00000E+02
 -1       306 7.31566E+02 5.00000E+02 5.00000E+02
 -1       307 8.27620E+02 5.00000E+02 5.00000E+02
 -1       308 9.23674E+02 5.00000E+02 5.00000E+02
 -1       309 1.01973E+03 5.00000E+02 5.00000E+02
 -1       310 1.11578E+03 5.00000E+02 5.00000E+02
 -1       311 1.21184E+03 5.00000E+02 5.00000E+02
 -1       312 1.30789E+03 5.00000E+02 5.00000E+02
 -1       313 1.40395E+03 5.00000E+02 5.00000E+02
 -1       314 5.28430E+02 5.00000E+02 5.00000E+02
 -1       315 5.96308E+02 5.00000E+02 5.00000E+02
 -1       316 6.83661E+02 5.00000E+02 5.00000E+02
 -1       317 7.79593E+02 5.00000E+02 5.00000E+02
 -1       318 8.75647E+02 5.00000E+02 5.00000E+02
 -1       319 9.71702E+02 5.00000E+02 5.00000E+02
 -1       320 1.06776E+03 5.00000E+02 5.00000E+02
 -1       321 1.16381E+03 5.00000E+02 5.00000E+02
 -1       322 1.25986E+03 5.00000E+02 5.00000E+02
 -1       323 1.35592E+03 5.00000E+02 5.00000E+02
 -1       324 1.45197E+03 5.00000E+02 5.00000E+02
 -1       325 5.00000E+02 3.01696E+00-6.62024E-01
 -1       326 5.00000E+02-2.07143E+02-2.07143E+02
 -1       327 5.00000E+02-2.11049E+02 2.06733E+02
 -1       328 5.00000E+02 2.07376E+02 2.13688E+02
 -1       329 5.00000E+02 2.07143E+02-2.07143E+02
 -1       330 5.00000E+02 1.28404E+01 2.76093E+02
 -1       331 5.00000E+02-2.78814E+02-2.08380E+00
 -1       332 5.00000E+02 2.80314E+02-5.68434E-14
 -1       333 5.00000E+02 0.00000E+00-2.80314E+02
 -1       334 5.00000E+02 3.31998E+02 3.30987E+02
 -1       335 5.00000E+02-3.30987E+02-3.31998E+02
 -1       336 5.00000E+02-3.31998E+02 3.30987E+02
 -1       337 5.00000E+02 3.28981E+02-3.28981E+02
 -1       338 5.00000E+02 5.89729E+01 1.41175E+02
 -1       339 5.00000E+02-1.40157E+02-6.69861E+01
 -1       340 5.00000E+02 1.40340E+02-6.27204E+01
 -1       341 5.00000E+02-3.45985E+02 1.39693E+02
 -1       342 5.00000E+02 1.39693E+02 3.45985E+02
 -1       343 5.00000E+02-1.37042E+02-3.44184E+02
 -1       344 5.00000E+02 3.47192E+02-1.39883E+02
 -1       345 5.00000E+02 3.37050E+02 1.43389E+02
 -1       346 5.00000E+02 1.39487E+02-3.48986E+02
 -1       347 5.00000E+02-3.45985E+02-1.39693E+02
 -1       348 5.00000E+02-1.38975E+02 3.49027E+02
 -1       349 5.00000E+02-1.34023E+02 7.89652E+01
 -1       350 5.00000E+02 2.05346E+01-1.37914E+02
 -1       351 5.00000E+02 1.81126E+02 8.14580E+01
 -1       352 5.00000E+02-8.34519E+01 1.94480E+02
 -1       353 5.00000E+02-9.05621E+01-2.00032E+02
 -1       354 5.00000E+02-3.43722E+01 3.78128E+02
 -1       355 5.00000E+02 3.85611E+02-3.42724E+01
 -1       356 5.00000E+02 3.79444E+01-3.80198E+02
 -1       357 5.00000E+02-3.81906E+02 3.44625E+01
 -1       358 5.00000E+02 9.65985E+01-2.21419E+02
 -1       359 5.00000E+02-2.34038E+02 1.00149E+02
 -1       360 5.00000E+02-3.89276E+02 2.39908E+02
 -1       361 5.00000E+02 3.91250E+02 2.39167E+02
 -1       362 5.00000E+02 2.36891E+02-3.84015E+02
 -1       363 5.00000E+02-3.89522E+02-2.36882E+02
 -1       364 5.00000E+02-2.36802E+02 3.84059E+02
 -1       365 5.00000E+02 4.08927E+02-2.41988E+02
 -1       366 5.00000E+02-2.38966E+02-3.90050E+02
 -1       367 5.00000E+02 2.36618E+02 3.88880E+02
 -1       368 5.00000E+02 1.03996E+02 2.42839E+02
 -1       369 5.00000E+02-2.42839E+02-1.03996E+02
 -1       370 5.00000E+02 2.42839E+02-1.03996E+02
 -1       371 5.00000E+02-2.94606E+01 9.95408E+01
 -1       372 5.00000E+02 1.05229E+02 2.14484E+01
 -1       373 5.00000E+02 4.00450E+02 4.02009E+02
 -1       374 5.00000E+02 4.01923E+02-4.00828E+02
 -1       375 5.00000E+02-4.01923E+02-4.00828E+02
 -1       376 5.00000E+02-4.00450E+02 4.02009E+02
 -1       377 5.00000E+02-6.19338E+01-4.02513E+02
 -1       378 5.00000E+02-4.02899E+02-6.40933E+01
 -1       379 5.00000E+02 6.40933E+01 4.02899E+02
 -1       380 5.00000E+02 4.02899E+02 6.40933E+01
 -1       381 5.00000E+02-2.44733E+02-2.93137E+02
 -1       382 5.00000E+02 2.94106E+02 2.42299E+02
 -1       383 5.00000E+02 2.96296E+02-2.39828E+02
 -1       384 5.00000E+02-2.94344E+02 2.42056E+02
 -1       385 5.00000E+02-2.98158E+02-2.13781E+02
 -1       386 5.00000E+02 2.20835E+02 2.99600E+02
 -1       387 5.00000E+02-2.14630E+02 2.97266E+02
 -1       388 5.00000E+02 2.16149E+02-2.97616E+02
 -1       389 5.00000E+02-1.85684E+02 1.65975E+01
 -1       390 5.00000E+02-4.12847E+01-7.56587E+01
 -1       391 5.00000E+02 2.55833E+02 1.29969E+02
 -1       392 5.00000E+02-8.98491E+01 4.02629E+00
 -1       393 5.00000E+02 2.54831E+00 1.93483E+02
 -1       394 5.00000E+02 1.94422E+02-3.59846E+00
 -1       395 5.00000E+02-1.49148E+02 2.56578E+02
 -1       396 5.00000E+02 1.40877E+02-1.52106E+02
 -1       397 5.00000E+02-8.15206E+01-2.77090E+02
 -1       398 5.00000E+02 5.47915E+01-6.21981E+01
 -1       399 5.00000E+02 3.15525E+02 4.15193E+02
 -1       400 5.00000E+02-4.17125E+02-3.21181E+02
 -1       401 5.00000E+02-3.18274E+02-4.18388E+02
 -1       402 5.00000E+02 3.18274E+02-4.18388E+02
 -1       403 5.00000E+02-4.18388E+02 3.18274E+02
 -1       404 5.00000E+02-3.15525E+02 4.15193E+02
 -1       405 5.00000E+02 4.18388E+02 3.18274E+02
 -1       406 5.00000E+02 4.13250E+02-3.24983E+02
 -1       407 5.00000E+02-1.51694E+02-1.47558E+02
 -1       408 5.00000E+02 1.51722E+02 1.55198E+02
 -1       409 5.00000E+02-4.22548E+02 1.07570E+02
 -1       410 5.00000E+02 4.18901E+02-1.09053E+02
 -1       411 5.00000E+02-1.08396E+02 4.20042E+02
 -1       412 5.00000E+02 1.08396E+02-4.20042E+02
 -1       413 5.00000E+02-4.26703E+02-1.57730E+02
 -1       414 5.00000E+02 4.26717E+02 1.57785E+02
 -1       415 5.00000E+02-1.61065E+02-4.28246E+02
 -1       416 5.00000E+02 1.56439E+02 4.26116E+02
 -1       417 5.00000E+02 7.67342E+01-2.98498E+02
 -1       418 5.00000E+02 7.11536E+01 3.19375E+02
 -1       419 5.00000E+02-3.18219E+02-6.81910E+01
 -1       420 5.00000E+02 3.22892E+02 6.51130E+01
 -1       421 5.00000E+02-1.62113E+02-2.71072E+02
 -1       422 5.00000E+02-7.33271E+01 2.97035E+02
 -1       423 5.00000E+02-3.06615E+02 7.29183E+01
 -1       424 5.00000E+02 3.17943E+02-6.75926E+01
 -1       425 5.00000E+02-2.74360E+02 1.66221E+02
 -1       426 5.00000E+02-1.51235E+02 1.54306E+02
 -1       427 5.00000E+02 1.46219E+02-2.75369E+02
 -1       428 5.00000E+02-1.85956E+01-2.10052E+02
 -1       429 5.00000E+02 2.78270E+02-1.68487E+02
 -1       430 5.00000E+02 4.25012E+01 7.17152E+01
 -1       431 5.00000E+02-4.31062E+02 1.77573E+02
 -1       432 5.00000E+02-1.82300E+02 4.31473E+02
 -1       433 5.00000E+02 4.31062E+02-1.77573E+02
 -1       434 5.00000E+02 1.82300E+02-4.31473E+02
 -1       435 5.00000E+02 2.46296E+02 6.01689E+01
 -1       436 5.00000E+02-4.69835E+01-3.43061E+02
 -1       437 5.00000E+02 1.11609E+02 9.57888E+01
 -1       438 5.00000E+02-4.83219E+01-1.46367E+02
 -1       439 5.00000E+02 1.69859E+02 2.57366E+02
 -1       440 5.00000E+02-2.82221E+02-1.57071E+02
 -1       441 5.00000E+02 8.59327E+01-1.25076E+02
 -1       442 5.00000E+02-2.29727E+02-3.85689E+01
 -1       443 5.00000E+02-7.65206E+01 1.36184E+02
 -1       444 5.00000E+02 1.33022E+01 4.35107E+02
 -1       445 5.00000E+02 4.35107E+02 1.33022E+01
 -1       446 5.00000E+02-1.93809E+01-4.32299E+02
 -1       447 5.00000E+02-4.35107E+02-1.33022E+01
 -1       448 5.00000E+02 3.02934E+02 1.93734E+02
 -1       449 5.00000E+02-1.04743E+02-1.06047E+02
 -1       450 5.00000E+02-5.31775E+01 2.44795E+02
 -1       451 5.00000E+02-8.63634E-02 3.47979E+02
 -1       452 5.00000E+02-3.38036E+02 2.26502E+00
 -1       453 5.00000E+02 3.39125E+02 6.49129E+00
 -1       454 5.00000E+02 3.43307E+02-1.99243E+02
 -1       455 5.00000E+02-3.52609E+02 1.92878E+02
 -1       456 5.00000E+02-1.97492E+02-3.48092E+02
 -1       457 5.00000E+02 3.35890E+01 2.31295E+02
 -1       458 5.00000E+02-1.46277E+02-2.12094E+02
 -1       459 5.00000E+02-2.72157E+02 3.40605E+02
 -1       460 5.00000E+02 2.72144E+02 3.40956E+02
 -1       461 5.00000E+02-3.41003E+02-2.72163E+02
 -1       462 5.00000E+02 2.71058E+02-3.39624E+02
 -1       463 5.00000E+02 2.42304E+02-3.09366E+01
 -1       464 5.00000E+02-1.07286E+02-4.40434E+02
 -1       465 5.00000E+02 1.04639E+02 4.39372E+02
 -1       466 5.00000E+02-4.39469E+02-1.04854E+02
 -1       467 5.00000E+02 4.39472E+02 1.04863E+02
 -1       468 5.00000E+02 2.04848E+02-1.44262E+02
 -1       469 5.00000E+02-4.74728E+01 3.55414E+01
 -1       470 5.00000E+02 3.69181E+01-1.94160E+02
 -1       471 5.00000E+02-4.41566E+02 4.41566E+02
 -1       472 5.00000E+02 4.41566E+02 4.41566E+02
 -1       473 5.00000E+02-4.41566E+02-4.41566E+02
 -1       474 5.00000E+02 4.41566E+02-4.41566E+02
 -1       475 5.00000E+02-2.39127E+02 4.17344E+01
 -1       476 5.00000E+02-1.84962E+02 6.69224E+01
 -1       477 5.00000E+02-4.44411E+02 2.68216E+02
 -1       478 5.00000E+02-2.65434E+02 4.43548E+02
 -1       479 5.00000E+02 2.65434E+02 4.43548E+02
 -1       480 5.00000E+02 4.44742E+02 2.70278E+02
 -1       481 5.00000E+02-4.43548E+02-2.65434E+02
 -1       482 5.00000E+02-2.68884E+02-4.44338E+02
 -1       483 5.00000E+02 2.65434E+02-4.43548E+02
 -1       484 5.00000E+02 4.47071E+02-2.78016E+02
 -1       485 5.00000E+02-2.76263E+02-3.44955E+02
 -1       486 5.00000E+02 3.45575E+02 2.75497E+02
 -1       487 5.00000E+02 3.37463E+02-2.82849E+02
 -1       488 5.00000E+02-3.44728E+02 2.75127E+02
 -1       489 5.00000E+02 4.48128E+02-5.29106E+01
 -1       490 5.00000E+02-5.48820E+01 4.42262E+02
 -1       491 5.00000E+02-4.42262E+02 5.48820E+01
 -1       492 5.00000E+02 5.68119E+01-4.42671E+02
 -1       493 5.00000E+02 8.37816E+01-3.51000E+02
 -1       494 5.00000E+02 3.54538E+01-3.36711E+02
 -1       495 5.00000E+02 3.54801E+02 1.96514E+02
 -1       496 5.00000E+02 1.92310E+02-3.52085E+02
 -1       497 5.00000E+02-3.52603E+02-1.94804E+02
 -1       498 5.00000E+02-1.91076E+02 3.51095E+02
 -1       499 5.00000E+02 1.93781E+02 3.50772E+02
 -1       500 5.00000E+02-8.49015E+01 3.51862E+02
 -1       501 5.00000E+02-2.08934E+02-1.52651E+02
 -1       502 5.00000E+02-3.62057E+02 8.52228E+01
 -1       503 5.00000E+02-2.05905E+02 1.52090E+02
 -1       504 5.00000E+02 2.07233E+02 1.53925E+02
 -1       505 5.00000E+02 9.97491E+01 1.86359E+02
 -1       506 5.00000E+02 3.65114E+02-4.47642E+02
 -1       507 5.00000E+02-4.47588E+02 3.65126E+02
 -1       508 5.00000E+02 3.68793E+02 4.48841E+02
 -1       509 5.00000E+02-4.47284E+02-3.67331E+02
 -1       510 5.00000E+02 4.47588E+02 3.65126E+02
 -1       511 5.00000E+02-3.65114E+02-4.47642E+02
 -1       512 5.00000E+02 4.47140E+02-3.67473E+02
 -1       513 5.00000E+02-3.68793E+02 4.48841E+02
 -1       514 5.00000E+02 1.49846E+02-2.03619E+02
 -1       515 5.00000E+02-1.85521E+02-9.85835E+01
 -1       516 5.00000E+02 5.04801E+01-2.54292E+02
 -1       517 5.00000E+02 1.63314E+02 3.24674E+01
 -1       518 5.00000E+02 1.02469E+01 1.44548E+02
 -1       519 5.00000E+02 1.12327E+02 3.00441E+02
 -1       520 5.00000E+02 1.88332E+02-9.42748E+01
 -1       521 5.00000E+02 5.56249E+00-8.67900E+01
 -1       522 5.00000E+02 3.69582E+02-8.65186E+01
 -1       523 5.00000E+02 9.93902E+01-3.15444E+01
 -1       524 5.00000E+02 2.43149E+02 2.47852E+02
 -1       525 5.00000E+02-2.36639E+02 2.48957E+02
 -1       526 5.00000E+02-2.49253E+02-2.37898E+02
 -1       527 5.00000E+02 2.37037E+02-2.47919E+02
 -1       528 5.00000E+02 1.49073E+02 2.13007E+02
 -1       529 5.00000E+02-1.39359E+02-1.38705E+01
 -1       530 5.00000E+02 2.95047E+02-1.19126E+02
 -1       531 5.00000E+02-1.35766E+02 2.04200E+02
 -1       532 5.00000E+02 2.11157E+02 4.45195E+02
 -1       533 5.00000E+02-2.13508E+02-4.47874E+02
 -1       534 5.00000E+02 4.46717E+02 2.12787E+02
 -1       535 5.00000E+02-4.46270E+02-2.11749E+02
 -1       536 5.00000E+02 3.77052E+02-3.51749E+02
 -1       537 5.00000E+02-3.51749E+02 3.77052E+02
 -1       538 5.00000E+02 3.51749E+02 3.77052E+02
 -1       539 5.00000E+02-3.77052E+02-3.51749E+02
 -1       540 5.00000E+02 5.56342E+01-1.34277E+01
 -1       541 5.00000E+02-8.96244E+01-3.60819E+02
 -1       542 5.00000E+02-3.47022E+01-2.55370E+02
 -1       543 5.00000E+02-2.94228E+02-1.09907E+02
 -1       544 5.00000E+02-2.95519E+02-2.99566E+02
 -1       545 5.00000E+02 2.96409E+02-2.94184E+02
 -1       546 5.00000E+02 2.99880E+02 2.94870E+02
 -1       547 5.00000E+02-2.99761E+02 2.94677E+02
 -1       548 5.00000E+02-4.46745E+01-2.63343E+01
 -1       549 5.00000E+02-8.91135E+01-5.66342E+01
 -1       550 5.00000E+02-3.66881E+01 1.61808E+02
 -1       551 5.00000E+02 3.89143E+02 1.22285E+02
 -1       552 5.00000E+02 1.20282E+02 3.90897E+02
 -1       553 5.00000E+02-3.90647E+02-1.21608E+02
 -1       554 5.00000E+02 3.03808E+02 1.12485E+02
 -1       555 5.00000E+02-1.67954E+02 3.02459E+02
 -1       556 5.00000E+02-5.27807E+00-3.76425E+02
 -1       557 5.00000E+02-2.70002E+02-6.09652E+01
 -1       558 5.00000E+02-8.00420E+01 8.36734E+01
 -1       559 5.00000E+02-1.92300E+02 2.57673E+02
 -1       560 5.00000E+02-2.89218E+02 1.19104E+02
 -1       561 5.00000E+02 4.91540E+01 1.87058E+02
 -1       562 5.00000E+02 9.58865E+01-1.73614E+02
 -1       563 5.00000E+02 1.47590E+02-1.74507E+01
 -1       564 5.00000E+02-1.24342E+02-3.93580E+02
 -1       565 5.00000E+02-1.39083E+02 3.29672E+01
 -1       566 5.00000E+02 1.67801E+02 2.97783E+02
 -1       567 5.00000E+02 2.51382E+02 1.77493E+02
 -1       568 5.00000E+02 3.10412E+02-3.76546E+02
 -1       569 5.00000E+02 3.88212E+02-1.66103E+02
 -1       570 5.00000E+02-3.86272E+02 1.68346E+02
 -1       571 5.00000E+02 5.99133E+01 4.56376E+02
 -1       572 5.00000E+02-4.56387E+02-5.99389E+01
 -1       573 5.00000E+02 4.56387E+02 5.99400E+01
 -1       574 5.00000E+02-6.06951E+01-4.56122E+02
 -1       575 5.00000E+02-3.09899E+02 3.73659E+02
 -1       576 5.00000E+02-3.74125E+02-3.11032E+02
 -1       577 5.00000E+02 3.09897E+02 3.73729E+02
 -1       578 5.00000E+02 3.90696E+02 1.29262E+01
 -1       579 5.00000E+02 1.50860E+01 3.88793E+02
 -1       580 5.00000E+02-3.89744E+02-1.27825E+01