    1C
    1UUSER                                                              
    1UDATE              14.february.2022                                
    1UTIME              10:43:54                                        
    1UHOST                                                              
    1UPGM               CalculiX                                        
    1UVERSION           Version 2.16                             
    1UCOMPILETIME       Mo 25. Nov 18:56:47 CET 2019                    
    1UDIR                                                               
    1UDBN                                                               
    1UMAT    1SUBSYSTEM1_MATERIAL                                       
    1UMAT    2SUBSYSTEM2_MATERIAL                                       
    1UMAT    3SI1                                                       
    2C                         38858                                     1
 -1         1 5.00000E+02-5.00000E+02-5.00000E+02
 -1         2 5.00000E+02-5.00000E+02 5.00000E+02
 -1         3 5.00000E+02 5.00000E+02 5.00000E+02
 -1         4 5.00000E+02 5.00000E+02-5.00000E+02
 -1         5 1.50000E+03-5.00000E+02 5.00000E+02
 -1         6 1.50000E+03-5.00000E+02-5.00000E+02
 -1         7 1.50000E+03 5.00000E+02 5.00000E+02
 -1         8 1.50000E+03 5.00000E+02-5.00000E+02
 -1         9 5.00000E+02-5.00000E+02-4.60000E+02
 -1        10 5.00000E+02-5.00000E+02-4.20000E+02
 -1        11 5.00000E+02-5.00000E+02-3.80000E+02
 -1        12 5.00000E+02-5.00000E+02-3.40000E+02
 -1        13 5.00000E+02-5.00000E+02-3.00000E+02
 -1        14 5.00000E+02-5.00000E+02-2.60000E+02
 -1        15 5.00000E+02-5.00000E+02-2.20000E+02
 -1        16 5.00000E+02-5.00000E+02-1.80000E+02
 -1        17 5.00000E+02-5.00000E+02-1.40000E+02
 -1        18 5.00000E+02-5.00000E+02-1.00000E+02
 -1        19 5.00000E+02-5.00000E+02-6.00000E+01
 -1        20 5.00000E+02-5.00000E+02-2.00000E+01
 -1        21 5.00000E+02-5.00000E+02 2.00000E+01
 -1        22 5.00000E+02-5.00000E+02 6.00000E+01
 -1        23 5.00000E+02-5.00000E+02 1.00000E+02
 -1        24 5.00000E+02-5.00000E+02 1.40000E+02
 -1        25 5.00000E+02-5.00000E+02 1.80000E+02
 -1        26 5.00000E+02-5.00000E+02 2.20000E+02
 -1        27 5.00000E+02-5.00000E+02 2.60000E+02
 -1        28 5.00000E+02-5.00000E+02 3.00000E+02
 -1        29 5.00000E+02-5.00000E+02 3.40000E+02
 -1        30 5.00000E+02-5.00000E+02 3.80000E+02
 -1        31 5.00000E+02-5.00000E+02 4.20000E+02
 -1        32 5.00000E+02-5.00000E+02 4.60000E+02
 -1        33 5.00000E+02-5.00000E+02-4.80000E+02
 -1        34 5.00000E+02-5.00000E+02-4.40000E+02
 -1        35 5.00000E+02-5.00000E+02-4.00000E+02
 -1        36 5.00000E+02-5.00000E+02-3.60000E+02
 -1        37 5.00000E+02-5.00000E+02-3.20000E+02
 -1        38 5.00000E+02-5.00000E+02-2.80000E+02
 -1        39 5.00000E+02-5.00000E+02-2.40000E+02
 -1        40 5.00000E+02-5.00000E+02-2.00000E+02
 -1        41 5.00000E+02-5.00000E+02-1.60000E+02
 -1        42 5.00000E+02-5.00000E+02-1.20000E+02
 -1        43 5.00000E+02-5.00000E+02-8.00000E+01
 -1        44 5.00000E+02-5.00000E+02-4.00000E+01
 -1        45 5.00000E+02-5.00000E+02 0.00000E+00
 -1        46 5.00000E+02-5.00000E+02 4.00000E+01
 -1        47 5.00000E+02-5.00000E+02 8.00000E+01
 -1        48 5.00000E+02-5.00000E+02 1.20000E+02
 -1        49 5.00000E+02-5.00000E+02 1.60000E+02
 -1        50 5.00000E+02-5.00000E+02 2.00000E+02
 -1        51 5.00000E+02-5.00000E+02 2.40000E+02
 -1        52 5.00000E+02-5.00000E+02 2.80000E+02
 -1        53 5.00000E+02-5.00000E+02 3.20000E+02
 -1        54 5.00000E+02-5.00000E+02 3.60000E+02
 -1        55 5.00000E+02-5.00000E+02 4.00000E+02
 -1        56 5.00000E+02-5.00000E+02 4.40000E+02
 -1        57 5.00000E+02-5.00000E+02 4.80000E+02
 -1        58 5.00000E+02-4.60000E+02 5.00000E+02
 -1        59 5.00000E+02-4.20000E+02 5.00000E+02
 -1        60 5.00000E+02-3.80000E+02 5.00000E+02
 -1        61 5.00000E+02-3.40000E+02 5.00000E+02
 -1        62 5.00000E+02-3.00000E+02 5.00000E+02
 -1        63 5.00000E+02-2.60000E+02 5.00000E+02
 -1        64 5.00000E+02-2.20000E+02 5.00000E+02
 -1        65 5.00000E+02-1.80000E+02 5.00000E+02
 -1        66 5.00000E+02-1.40000E+02 5.00000E+02
 -1        67 5.00000E+02-1.00000E+02 5.00000E+02
 -1        68 5.00000E+02-6.00000E+01 5.00000E+02
 -1        69 5.00000E+02-2.00000E+01 5.00000E+02
 -1        70 5.00000E+02 2.00000E+01 5.00000E+02
 -1        71 5.00000E+02 6.00000E+01 5.00000E+02
 -1        72 5.00000E+02 1.00000E+02 5.00000E+02
 -1        73 5.00000E+02 1.40000E+02 5.00000E+02
 -1        74 5.00000E+02 1.80000E+02 5.00000E+02
 -1        75 5.00000E+02 2.20000E+02 5.00000E+02
 -1        76 5.00000E+02 2.60000E+02 5.00000E+02
 -1        77 5.00000E+02 3.00000E+02 5.00000E+02
 -1        78 5.00000E+02 3.40000E+02 5.00000E+02
 -1        79 5.00000E+02 3.80000E+02 5.00000E+02
 -1        80 5.00000E+02 4.20000E+02 5.00000E+02
 -1        81 5.00000E+02 4.60000E+02 5.00000E+02
 -1        82 5.00000E+02-4.80000E+02 5.00000E+02
 -1        83 5.00000E+02-4.40000E+02 5.00000E+02
 -1        84 5.00000E+02-4.00000E+02 5.00000E+02
 -1        85 5.00000E+02-3.60000E+02 5.00000E+02
 -1        86 5.00000E+02-3.20000E+02 5.00000E+02
 -1        87 5.00000E+02-2.80000E+02 5.00000E+02
 -1        88 5.00000E+02-2.40000E+02 5.00000E+02
 -1        89 5.00000E+02-2.00000E+02 5.00000E+02
 -1        90 5.00000E+02-1.60000E+02 5.00000E+02
 -1        91 5.00000E+02-1.20000E+02 5.00000E+02
 -1        92 5.00000E+02-8.00000E+01 5.00000E+02
 -1        93 5.00000E+02-4.00000E+01 5.00000E+02
 -1        94 5.00000E+02 0.00000E+00 5.00000E+02
 -1        95 5.00000E+02 4.00000E+01 5.00000E+02
 -1        96 5.00000E+02 8.00000E+01 5.00000E+02
 -1        97 5.00000E+02 1.20000E+02 5.00000E+02
 -1        98 5.00000E+02 1.60000E+02 5.00000E+02
 -1        99 5.00000E+02 2.00000E+02 5.00000E+02
 -1       100 5.00000E+02 2.40000E+02 5.00000E+02
 -1       101 5.00000E+02 2.80000E+02 5.00000E+02
 -1       102 5.00000E+02 3.20000E+02 5.00000E+02
 -1       103 5.00000E+02 3.60000E+02 5.00000E+02
 -1       104 5.00000E+02 4.00000E+02 5.00000E+02
 -1       105 5.00000E+02 4.40000E+02 5.00000E+02
 -1       106 5.00000E+02 4.80000E+02 5.00000E+02
 -1       107 5.00000E+02 5.00000E+02-4.60000E+02
 -1       108 5.00000E+02 5.00000E+02-4.20000E+02
 -1       109 5.00000E+02 5.00000E+02-3.80000E+02
 -1       110 5.00000E+02 5.00000E+02-3.40000E+02
 -1       111 5.00000E+02 5.00000E+02-3.00000E+02
 -1       112 5.00000E+02 5.00000E+02-2.60000E+02
 -1       113 5.00000E+02 5.00000E+02-2.20000E+02
 -1       114 5.00000E+02 5.00000E+02-1.80000E+02
 -1       115 5.00000E+02 5.00000E+02-1.40000E+02
 -1       116 5.00000E+02 5.00000E+02-1.00000E+02
 -1       117 5.00000E+02 5.00000E+02-6.00000E+01
 -1       118 5.00000E+02 5.00000E+02-2.00000E+01
 -1       119 5.00000E+02 5.00000E+02 2.00000E+01
 -1       120 5.00000E+02 5.00000E+02 6.00000E+01
 -1       121 5.00000E+02 5.00000E+02 1.00000E+02
 -1       122 5.00000E+02 5.00000E+02 1.40000E+02
 -1       123 5.00000E+02 5.00000E+02 1.80000E+02
 -1       124 5.00000E+02 5.00000E+02 2.20000E+02
 -1       125 5.00000E+02 5.00000E+02 2.60000E+02
 -1       126 5.00000E+02 5.00000E+02 3.00000E+02
 -1       127 5.00000E+02 5.00000E+02 3.40000E+02
 -1       128 5.00000E+02 5.00000E+02 3.80000E+02
 -1       129 5.00000E+02 5.00000E+02 4.20000E+02
 -1       130 5.00000E+02 5.00000E+02 4.60000E+02
 -1       131 5.00000E+02 5.00000E+02-4.80000E+02
 -1       132 5.00000E+02 5.00000E+02-4.40000E+02
 -1       133 5.00000E+02 5.00000E+02-4.00000E+02
 -1       134 5.00000E+02 5.00000E+02-3.60000E+02
 -1       135 5.00000E+02 5.00000E+02-3.20000E+02
 -1       136 5.00000E+02 5.00000E+02-2.80000E+02
 -1       137 5.00000E+02 5.00000E+02-2.40000E+02
 -1       138 5.00000E+02 5.00000E+02-2.00000E+02
 -1       139 5.00000E+02 5.00000E+02-1.60000E+02
 -1       140 5.00000E+02 5.00000E+02-1.20000E+02
 -1       141 5.00000E+02 5.00000E+02-8.00000E+01
 -1       142 5.00000E+02 5.00000E+02-4.00000E+01
 -1       143 5.00000E+02 5.00000E+02 0.00000E+00
 -1       144 5.00000E+02 5.00000E+02 4.00000E+01
 -1       145 5.00000E+02 5.00000E+02 8.00000E+01
 -1       146 5.00000E+02 5.00000E+02 1.20000E+02
 -1       147 5.00000E+02 5.00000E+02 1.60000E+02
 -1       148 5.00000E+02 5.00000E+02 2.00000E+02
 -1       149 5.00000E+02 5.00000E+02 2.40000E+02
 -1       150 5.00000E+02 5.00000E+02 2.80000E+02
 -1       151 5.00000E+02 5.00000E+02 3.20000E+02
 -1       152 5.00000E+02 5.00000E+02 3.60000E+02
 -1       153 5.00000E+02 5.00000E+02 4.00000E+02
 -1       154 5.00000E+02 5.00000E+02 4.40000E+02
 -1       155 5.00000E+02 5.00000E+02 4.80000E+02
 -1       156 5.00000E+02-4.60000E+02-5.00000E+02
 -1       157 5.00000E+02-4.20000E+02-5.00000E+02
 -1       158 5.00000E+02-3.80000E+02-5.00000E+02
 -1       159 5.00000E+02-3.40000E+02-5.00000E+02
 -1       160 5.00000E+02-3.00000E+02-5.00000E+02
 -1       161 5.00000E+02-2.60000E+02-5.00000E+02
 -1       162 5.00000E+02-2.20000E+02-5.00000E+02
 -1       163 5.00000E+02-1.80000E+02-5.00000E+02
 -1       164 5.00000E+02-1.40000E+02-5.00000E+02
 -1       165 5.00000E+02-1.00000E+02-5.00000E+02
 -1       166 5.00000E+02-6.00000E+01-5.00000E+02
 -1       167 5.00000E+02-2.00000E+01-5.00000E+02
 -1       168 5.00000E+02 2.00000E+01-5.00000E+02
 -1       169 5.00000E+02 6.00000E+01-5.00000E+02
 -1       170 5.00000E+02 1.00000E+02-5.00000E+02
 -1       171 5.00000E+02 1.40000E+02-5.00000E+02
 -1       172 5.00000E+02 1.80000E+02-5.00000E+02
 -1       173 5.00000E+02 2.20000E+02-5.00000E+02
 -1       174 5.00000E+02 2.60000E+02-5.00000E+02
 -1       175 5.00000E+02 3.00000E+02-5.00000E+02
 -1       176 5.00000E+02 3.40000E+02-5.00000E+02
 -1       177 5.00000E+02 3.80000E+02-5.00000E+02
 -1       178 5.00000E+02 4.20000E+02-5.00000E+02
 -1       179 5.00000E+02 4.60000E+02-5.00000E+02
 -1       180 5.00000E+02-4.80000E+02-5.00000E+02
 -1       181 5.00000E+02-4.40000E+02-5.00000E+02
 -1       182 5.00000E+02-4.00000E+02-5.00000E+02
 -1       183 5.00000E+02-3.60000E+02-5.00000E+02
 -1       184 5.00000E+02-3.20000E+02-5.00000E+02
 -1       185 5.00000E+02-2.80000E+02-5.00000E+02
 -1       186 5.00000E+02-2.40000E+02-5.00000E+02
 -1       187 5.00000E+02-2.00000E+02-5.00000E+02
 -1       188 5.00000E+02-1.60000E+02-5.00000E+02
 -1       189 5.00000E+02-1.20000E+02-5.00000E+02
 -1       190 5.00000E+02-8.00000E+01-5.00000E+02
 -1       191 5.00000E+02-4.00000E+01-5.00000E+02
 -1       192 5.00000E+02 0.00000E+00-5.00000E+02
 -1       193 5.00000E+02 4.00000E+01-5.00000E+02
 -1       194 5.00000E+02 8.00000E+01-5.00000E+02
 -1       195 5.00000E+02 1.20000E+02-5.00000E+02
 -1       196 5.00000E+02 1.60000E+02-5.00000E+02
 -1       197 5.00000E+02 2.00000E+02-5.00000E+02
 -1       198 5.00000E+02 2.40000E+02-5.00000E+02
 -1       199 5.00000E+02 2.80000E+02-5.00000E+02
 -1       200 5.00000E+02 3.20000E+02-5.00000E+02
 -1       201 5.00000E+02 3.60000E+02-5.00000E+02
 -1       202 5.00000E+02 4.00000E+02-5.00000E+02
 -1       203 5.00000E+02 4.40000E+02-5.00000E+02
 -1       204 5.00000E+02 4.80000E+02-5.00000E+02
 -1       205 1.50000E+03-5.00000E+02-4.00000E+02
 -1       206 1.50000E+03-5.00000E+02-3.00000E+02
 -1       207 1.50000E+03-5.00000E+02-2.00000E+02
 -1       208 1.50000E+03-5.00000E+02-1.00000E+02
 -1       209 1.50000E+03-5.00000E+02 0.00000E+00
 -1       210 1.50000E+03-5.00000E+02 1.00000E+02
 -1       211 1.50000E+03-5.00000E+02 2.00000E+02
 -1       212 1.50000E+03-5.00000E+02 3.00000E+02
 -1       213 1.50000E+03-5.00000E+02 4.00000E+02
 -1       214 1.50000E+03-5.00000E+02-4.50000E+02
 -1       215 1.50000E+03-5.00000E+02-3.50000E+02
 -1       216 1.50000E+03-5.00000E+02-2.50000E+02
 -1       217 1.50000E+03-5.00000E+02-1.50000E+02
 -1       218 1.50000E+03-5.00000E+02-5.00000E+01
 -1       219 1.50000E+03-5.00000E+02 5.00000E+01
 -1       220 1.50000E+03-5.00000E+02 1.50000E+02
 -1       221 1.50000E+03-5.00000E+02 2.50000E+02
 -1       222 1.50000E+03-5.00000E+02 3.50000E+02
 -1       223 1.50000E+03-5.00000E+02 4.50000E+02
 -1       224 1.50000E+03-4.00000E+02 5.00000E+02
 -1       225 1.50000E+03-3.00000E+02 5.00000E+02
 -1       226 1.50000E+03-2.00000E+02 5.00000E+02
 -1       227 1.50000E+03-1.00000E+02 5.00000E+02
 -1       228 1.50000E+03 0.00000E+00 5.00000E+02
 -1       229 1.50000E+03 1.00000E+02 5.00000E+02
 -1       230 1.50000E+03 2.00000E+02 5.00000E+02
 -1       231 1.50000E+03 3.00000E+02 5.00000E+02
 -1       232 1.50000E+03 4.00000E+02 5.00000E+02
 -1       233 1.50000E+03-4.50000E+02 5.00000E+02
 -1       234 1.50000E+03-3.50000E+02 5.00000E+02
 -1       235 1.50000E+03-2.50000E+02 5.00000E+02
 -1       236 1.50000E+03-1.50000E+02 5.00000E+02
 -1       237 1.50000E+03-5.00000E+01 5.00000E+02
 -1       238 1.50000E+03 5.00000E+01 5.00000E+02
 -1       239 1.50000E+03 1.50000E+02 5.00000E+02
 -1       240 1.50000E+03 2.50000E+02 5.00000E+02
 -1       241 1.50000E+03 3.50000E+02 5.00000E+02
 -1       242 1.50000E+03 4.50000E+02 5.00000E+02
 -1       243 1.50000E+03 5.00000E+02-4.00000E+02
 -1       244 1.50000E+03 5.00000E+02-3.00000E+02
 -1       245 1.50000E+03 5.00000E+02-2.00000E+02
 -1       246 1.50000E+03 5.00000E+02-1.00000E+02
 -1       247 1.50000E+03 5.00000E+02 0.00000E+00
 -1       248 1.50000E+03 5.00000E+02 1.00000E+02
 -1       249 1.50000E+03 5.00000E+02 2.00000E+02
 -1       250 1.50000E+03 5.00000E+02 3.00000E+02
 -1       251 1.50000E+03 5.00000E+02 4.00000E+02
 -1       252 1.50000E+03 5.00000E+02-4.50000E+02
 -1       253 1.50000E+03 5.00000E+02-3.50000E+02
 -1       254 1.50000E+03 5.00000E+02-2.50000E+02
 -1       255 1.50000E+03 5.00000E+02-1.50000E+02
 -1       256 1.50000E+03 5.00000E+02-5.00000E+01
 -1       257 1.50000E+03 5.00000E+02 5.00000E+01
 -1       258 1.50000E+03 5.00000E+02 1.50000E+02
 -1       259 1.50000E+03 5.00000E+02 2.50000E+02
 -1       260 1.50000E+03 5.00000E+02 3.50000E+02
 -1       261 1.50000E+03 5.00000E+02 4.50000E+02
 -1       262 1.50000E+03-4.00000E+02-5.00000E+02
 -1       263 1.50000E+03-3.00000E+02-5.00000E+02
 -1       264 1.50000E+03-2.00000E+02-5.00000E+02
 -1       265 1.50000E+03-1.00000E+02-5.00000E+02
 -1       266 1.50000E+03 0.00000E+00-5.00000E+02
 -1       267 1.50000E+03 1.00000E+02-5.00000E+02
 -1       268 1.50000E+03 2.00000E+02-5.00000E+02
 -1       269 1.50000E+03 3.00000E+02-5.00000E+02
 -1       270 1.50000E+03 4.00000E+02-5.00000E+02
 -1       271 1.50000E+03-4.50000E+02-5.00000E+02
 -1       272 1.50000E+03-3.50000E+02-5.00000E+02
 -1       273 1.50000E+03-2.50000E+02-5.00000E+02
 -1       274 1.50000E+03-1.50000E+02-5.00000E+02
 -1       275 1.50000E+03-5.00000E+01-5.00000E+02
 -1       276 1.50000E+03 5.00000E+01-5.00000E+02
 -1       277 1.50000E+03 1.50000E+02-5.00000E+02
 -1       278 1.50000E+03 2.50000E+02-5.00000E+02
 -1       279 1.50000E+03 3.50000E+02-5.00000E+02
 -1       280 1.50000E+03 4.50000E+02-5.00000E+02
 -1       281 5.47299E+02-5.00000E+02-5.00000E+02
 -1       282 6.13716E+02-5.00000E+02-5.00000E+02
 -1       283 7.05326E+02-5.00000E+02-5.00000E+02
 -1       284 8.04661E+02-5.00000E+02-5.00000E+02
 -1       285 9.03995E+02-5.00000E+02-5.00000E+02
 -1       286 1.00333E+03-5.00000E+02-5.00000E+02
 -1       287 1.10266E+03-5.00000E+02-5.00000E+02
 -1       288 1.20200E+03-5.00000E+02-5.00000E+02
 -1       289 1.30133E+03-5.00000E+02-5.00000E+02
 -1       290 1.40067E+03-5.00000E+02-5.00000E+02
 -1       291 5.23649E+02-5.00000E+02-5.00000E+02
 -1       292 5.80508E+02-5.00000E+02-5.00000E+02
 -1       293 6.59521E+02-5.00000E+02-5.00000E+02
 -1       294 7.54993E+02-5.00000E+02-5.00000E+02
 -1       295 8.54328E+02-5.00000E+02-5.00000E+02
 -1       296 9.53662E+02-5.00000E+02-5.00000E+02
 -1       297 1.05300E+03-5.00000E+02-5.00000E+02
 -1       298 1.15233E+03-5.00000E+02-5.00000E+02
 -1       299 1.25166E+03-5.00000E+02-5.00000E+02
 -1       300 1.35100E+03-5.00000E+02-5.00000E+02
 -1       301 1.45033E+03-5.00000E+02-5.00000E+02
 -1       302 5.47299E+02-5.00000E+02 5.00000E+02
 -1       303 6.13716E+02-5.00000E+02 5.00000E+02
 -1       304 7.05326E+02-5.00000E+02 5.00000E+02
 -1       305 8.04661E+02-5.00000E+02 5.00000E+02
 -1       306 9.03995E+02-5.00000E+02 5.00000E+02
 -1       307 1.00333E+03-5.00000E+02 5.00000E+02
 -1       308 1.10266E+03-5.00000E+02 5.00000E+02
 -1       309 1.20200E+03-5.00000E+02 5.00000E+02
 -1       310 1.30133E+03-5.00000E+02 5.00000E+02
 -1       311 1.40067E+03-5.00000E+02 5.00000E+02
 -1       312 5.23649E+02-5.00000E+02 5.00000E+02
 -1       313 5.80508E+02-5.00000E+02 5.00000E+02
 -1       314 6.59521E+02-5.00000E+02 5.00000E+02
 -1       315 7.54993E+02-5.00000E+02 5.00000E+02
 -1       316 8.54328E+02-5.00000E+02 5.00000E+02
 -1       317 9.53662E+02-5.00000E+02 5.00000E+02
 -1       318 1.05300E+03-5.00000E+02 5.00000E+02
 -1       319 1.15233E+03-5.00000E+02 5.00000E+02
 -1       320 1.25166E+03-5.00000E+02 5.00000E+02
 -1       321 1.35100E+03-5.00000E+02 5.00000E+02
 -1       322 1.45033E+03-5.00000E+02 5.00000E+02
 -1       323 5.47299E+02 5.00000E+02-5.00000E+02
 -1       324 6.13716E+02 5.00000E+02-5.00000E+02
 -1       325 7.05326E+02 5.00000E+02-5.00000E+02
 -1       326 8.04661E+02 5.00000E+02-5.00000E+02
 -1       327 9.03995E+02 5.00000E+02-5.00000E+02
 -1       328 1.00333E+03 5.00000E+02-5.00000E+02
 -1       329 1.10266E+03 5.00000E+02-5.00000E+02
 -1       330 1.20200E+03 5.00000E+02-5.00000E+02
 -1       331 1.30133E+03 5.00000E+02-5.00000E+02
 -1       332 1.40067E+03 5.00000E+02-5.00000E+02
 -1       333 5.23649E+02 5.00000E+02-5.00000E+02
 -1       334 5.80508E+02 5.00000E+02-5.00000E+02
 -1       335 6.59521E+02 5.00000E+02-5.00000E+02
 -1       336 7.54993E+02 5.00000E+02-5.00000E+02
 -1       337 8.54328E+02 5.00000E+02-5.00000E+02
 -1       338 9.53662E+02 5.00000E+02-5.00000E+02
 -1       339 1.05300E+03 5.00000E+02-5.00000E+02
 -1       340 1.15233E+03 5.00000E+02-5.00000E+02
 -1       341 1.25166E+03 5.00000E+02-5.00000E+02
 -1       342 1.35100E+03 5.00000E+02-5.00000E+02
 -1       343 1.45033E+03 5.00000E+02-5.00000E+02
 -1       344 5.47299E+02 5.00000E+02 5.00000E+02
 -1       345 6.13716E+02 5.00000E+02 5.00000E+02
 -1       346 7.05326E+02 5.00000E+02 5.00000E+02
 -1       347 8.04661E+02 5.00000E+02 5.00000E+02
 -1       348 9.03995E+02 5.00000E+02 5.00000E+02
 -1       349 1.00333E+03 5.00000E+02 5.00000E+02
 -1       350 1.10266E+03 5.00000E+02 5.00000E+02
 -1       351 1.20200E+03 5.00000E+02 5.00000E+02
 -1       352 1.30133E+03 5.00000E+02 5.00000E+02
 -1       353 1.40067E+03 5.00000E+02 5.00000E+02
 -1       354 5.23649E+02 5.00000E+02 5.00000E+02
 -1       355 5.80508E+02 5.00000E+02 5.00000E+02
 -1       356 6.59521E+02 5.00000E+02 5.00000E+02
 -1       357 7.54993E+02 5.00000E+02 5.00000E+02
 -1       358 8.54328E+02 5.00000E+02 5.00000E+02
 -1       359 9.53662E+02 5.00000E+02 5.00000E+02
 -1       360 1.05300E+03 5.00000E+02 5.00000E+02
 -1       361 1.15233E+03 5.00000E+02 5.00000E+02
 -1       362 1.25166E+03 5.00000E+02 5.00000E+02
 -1       363 1.35100E+03 5.00000E+02 5.00000E+02
 -1       364 1.45033E+03 5.00000E+02 5.00000E+02
 -1       365 5.00000E+02-1.51229E-01 8.56070E+00
 -1       366 5.00000E+02-2.08600E+02-2.06039E+02
 -1       367 5.00000E+02-2.07222E+02 2.07222E+02
 -1       368 5.00000E+02 2.04102E+02-2.09132E+02
 -1       369 5.00000E+02 2.09211E+02 2.04104E+02
 -1       370 5.00000E+02 2.84084E+02 3.09963E+00
 -1       371 5.00000E+02-2.80960E+02-5.68434E-14
 -1       372 5.00000E+02 7.60360E+00 2.80215E+02
 -1       373 5.00000E+02 0.00000E+00-2.80960E+02
 -1       374 5.00000E+02-3.36368E+02 3.26302E+02
 -1       375 5.00000E+02 3.36368E+02-3.26302E+02
 -1       376 5.00000E+02-3.24647E+02-3.36750E+02
 -1       377 5.00000E+02 3.36750E+02 3.24647E+02
 -1       378 5.00000E+02-1.33524E+02-6.30873E+01
 -1       379 5.00000E+02 1.40480E+02 6.67420E+01
 -1       380 5.00000E+02 6.93178E+01-1.40733E+02
 -1       381 5.00000E+02-6.67420E+01 1.40480E+02
 -1       382 5.00000E+02-1.35388E+02 3.51634E+02
 -1       383 5.00000E+02-3.47159E+02 1.41860E+02
 -1       384 5.00000E+02 3.45853E+02-1.39822E+02
 -1       385 5.00000E+02-1.38737E+02-3.43002E+02
 -1       386 5.00000E+02-3.49222E+02-1.39409E+02
 -1       387 5.00000E+02 1.38872E+02 3.43784E+02
 -1       388 5.00000E+02 3.41728E+02 1.37134E+02
 -1       389 5.00000E+02 1.35393E+02-3.51648E+02
 -1       390 5.00000E+02-1.72406E+02 5.83497E+01
 -1       391 5.00000E+02-5.93136E+01-1.66686E+02
 -1       392 5.00000E+02 1.82356E+02-8.56018E+01
 -1       393 5.00000E+02 8.53793E+01 1.81848E+02
 -1       394 5.00000E+02-3.88178E+02-3.52088E+01
 -1       395 5.00000E+02 3.89439E+02-3.16331E+01
 -1       396 5.00000E+02 3.52088E+01-3.88178E+02
 -1       397 5.00000E+02-3.52088E+01 3.88178E+02
 -1       398 5.00000E+02 3.92639E+02 2.40109E+02
 -1       399 5.00000E+02 2.40019E+02 3.92789E+02
 -1       400 5.00000E+02 3.92072E+02-2.39231E+02
 -1       401 5.00000E+02-2.39231E+02 3.92072E+02
 -1       402 5.00000E+02-2.39018E+02-3.90422E+02
 -1       403 5.00000E+02 2.39231E+02-3.92072E+02
 -1       404 5.00000E+02-3.90331E+02-2.39180E+02
 -1       405 5.00000E+02-3.89877E+02 2.38931E+02
 -1       406 5.00000E+02-1.07849E+02 2.49453E+02
 -1       407 5.00000E+02-2.42838E+02-1.04207E+02
 -1       408 5.00000E+02 1.04420E+02-2.51916E+02
 -1       409 5.00000E+02 2.50701E+02 1.04906E+02
 -1       410 5.00000E+02-3.95659E+02 3.96926E+02
 -1       411 5.00000E+02 3.95659E+02-3.96926E+02
 -1       412 5.00000E+02-3.96926E+02-3.95659E+02
 -1       413 5.00000E+02 3.93037E+02 3.95870E+02
 -1       414 5.00000E+02 2.63284E+01 8.69827E+01
 -1       415 5.00000E+02 9.69655E+01-1.83560E+01
 -1       416 5.00000E+02-1.19862E+02-2.49587E+02
 -1       417 5.00000E+02-2.49717E+02 1.17465E+02
 -1       418 5.00000E+02-4.00726E+02 6.08839E+01
 -1       419 5.00000E+02-6.08839E+01-4.00726E+02
 -1       420 5.00000E+02 6.08839E+01 4.00726E+02
 -1       421 5.00000E+02 4.00726E+02 6.08839E+01
 -1       422 5.00000E+02-2.96925E+02-2.38948E+02
 -1       423 5.00000E+02 2.97709E+02-2.38173E+02
 -1       424 5.00000E+02-2.98777E+02 2.38190E+02
 -1       425 5.00000E+02 2.38173E+02 2.97709E+02
 -1       426 5.00000E+02-2.25111E+02-2.99321E+02
 -1       427 5.00000E+02 2.25534E+02-2.94113E+02
 -1       428 5.00000E+02-2.25486E+02 2.94143E+02
 -1       429 5.00000E+02 3.00612E+02 2.26191E+02
 -1       430 5.00000E+02-4.35414E+01-7.92578E+01
 -1       431 5.00000E+02-9.05552E+01 9.38863E+00
 -1       432 5.00000E+02 1.27756E+02 2.56168E+02
 -1       433 5.00000E+02 2.58541E+02-1.27240E+02
 -1       434 5.00000E+02-1.42938E+02-1.51669E+02
 -1       435 5.00000E+02-1.51669E+02 1.42938E+02
 -1       436 5.00000E+02 1.99388E+02-2.01249E-02
 -1       437 5.00000E+02-2.45815E+00 1.96034E+02
 -1       438 5.00000E+02 4.18412E+02 3.18676E+02
 -1       439 5.00000E+02 3.21242E+02 4.07784E+02
 -1       440 5.00000E+02 4.18412E+02-3.18676E+02
 -1       441 5.00000E+02-4.07345E+02-3.23236E+02
 -1       442 5.00000E+02-3.16511E+02-4.21040E+02
 -1       443 5.00000E+02-3.18676E+02 4.18412E+02
 -1       444 5.00000E+02-4.18412E+02 3.18676E+02
 -1       445 5.00000E+02 3.18676E+02-4.18412E+02
 -1       446 5.00000E+02 1.56452E+02 1.42976E+02
 -1       447 5.00000E+02 1.39455E+02-1.51843E+02
 -1       448 5.00000E+02-2.08181E+02-8.76936E+00
 -1       449 5.00000E+02 1.23614E+01-2.00109E+02
 -1       450 5.00000E+02 4.20316E+02-1.11617E+02
 -1       451 5.00000E+02 1.08566E+02-4.21872E+02
 -1       452 5.00000E+02-4.20107E+02-1.08995E+02
 -1       453 5.00000E+02-1.08566E+02 4.21872E+02
 -1       454 5.00000E+02-4.18881E+02 1.61945E+02
 -1       455 5.00000E+02-1.65060E+02-4.21584E+02
 -1       456 5.00000E+02 1.65060E+02 4.21584E+02
 -1       457 5.00000E+02 4.21584E+02 1.65060E+02
 -1       458 5.00000E+02 3.24755E+02 6.46441E+01
 -1       459 5.00000E+02-3.24755E+02 6.46441E+01
 -1       460 5.00000E+02 6.90310E+01 3.27179E+02
 -1       461 5.00000E+02-6.46441E+01-3.24755E+02
 -1       462 5.00000E+02 2.15804E+01-7.04126E+01
 -1       463 5.00000E+02 3.10384E+02-6.84915E+01
 -1       464 5.00000E+02-7.32396E+01 3.25483E+02
 -1       465 5.00000E+02-3.18109E+02-6.77285E+01
 -1       466 5.00000E+02 6.64233E+01-3.22607E+02
 -1       467 5.00000E+02-4.28714E+01 6.98625E+01
 -1       468 5.00000E+02-2.76982E+02-1.59886E+02
 -1       469 5.00000E+02 7.48727E+01 4.11692E+01
 -1       470 5.00000E+02 1.78774E+02-4.28310E+02
 -1       471 5.00000E+02 4.28529E+02-1.80060E+02
 -1       472 5.00000E+02-4.28767E+02-1.77643E+02
 -1       473 5.00000E+02-1.78774E+02 4.28310E+02
 -1       474 5.00000E+02 6.58383E+01 2.49592E+02
 -1       475 5.00000E+02-2.36379E+02 4.93629E+01
 -1       476 5.00000E+02-4.84113E+01-2.34526E+02
 -1       477 5.00000E+02 8.90013E+01 1.12726E+02
 -1       478 5.00000E+02 1.12037E+02-9.08980E+01
 -1       479 5.00000E+02 2.82061E+02 1.57718E+02
 -1       480 5.00000E+02-1.61001E+02 2.80787E+02
 -1       481 5.00000E+02 1.59154E+02-2.84169E+02
 -1       482 5.00000E+02-2.88894E+02 1.68336E+02
 -1       483 5.00000E+02-3.09284E+00-1.34919E+02
 -1       484 5.00000E+02 2.42481E+02-5.47347E+01
 -1       485 5.00000E+02-1.09880E+02 8.53924E+01
 -1       486 5.00000E+02-4.37096E+02 6.56061E+00
 -1       487 5.00000E+02-6.56061E+00-4.37096E+02
 -1       488 5.00000E+02 6.56061E+00 4.37096E+02
 -1       489 5.00000E+02 4.37096E+02 6.56061E+00
 -1       490 5.00000E+02-1.63936E+02-2.88623E+02
 -1       491 5.00000E+02 2.92392E+02-1.78047E+02
 -1       492 5.00000E+02 1.78950E+02 2.92225E+02
 -1       493 5.00000E+02-3.43592E+02 5.84489E+00
 -1       494 5.00000E+02-8.98436E+00-3.46885E+02
 -1       495 5.00000E+02 5.66199E+00 3.42210E+02
 -1       496 5.00000E+02 3.42210E+02 5.66199E+00
 -1       497 5.00000E+02-3.44612E+02 2.00848E+02
 -1       498 5.00000E+02-3.42529E+02-2.01327E+02
 -1       499 5.00000E+02-1.40774E+02 2.02105E+02
 -1       500 5.00000E+02-2.70271E+02-3.42587E+02
 -1       501 5.00000E+02 3.41216E+02 2.70064E+02
 -1       502 5.00000E+02-2.70419E+02 3.43725E+02
 -1       503 5.00000E+02 2.70419E+02-3.43725E+02
 -1       504 5.00000E+02-4.36535E+02 1.10334E+02
 -1       505 5.00000E+02 1.10334E+02 4.36535E+02
 -1       506 5.00000E+02 4.36535E+02 1.10334E+02
 -1       507 5.00000E+02-1.10334E+02-4.36535E+02
 -1       508 5.00000E+02-9.65440E+01-1.17899E+02
 -1       509 5.00000E+02-4.42136E+02 4.41138E+02
 -1       510 5.00000E+02 4.42136E+02-4.41138E+02
 -1       511 5.00000E+02-4.41138E+02-4.42136E+02
 -1       512 5.00000E+02 4.41138E+02 4.42136E+02
 -1       513 5.00000E+02-6.18810E+01 1.99825E+02
 -1       514 5.00000E+02-2.03113E+02-1.48632E+02
 -1       515 5.00000E+02 2.00644E+02 6.10377E+01
 -1       516 5.00000E+02 1.97919E+02-3.50911E+02
 -1       517 5.00000E+02 3.53144E+02 1.95058E+02
 -1       518 5.00000E+02-1.97919E+02 3.50911E+02
 -1       519 5.00000E+02-1.97601E+02-3.50928E+02
 -1       520 5.00000E+02 2.72619E+02 3.44399E+02
 -1       521 5.00000E+02 3.44399E+02-2.72619E+02
 -1       522 5.00000E+02-3.44333E+02-2.69424E+02
 -1       523 5.00000E+02-3.44399E+02 2.72619E+02
 -1       524 5.00000E+02 1.97675E+02 3.51436E+02
 -1       525 5.00000E+02 3.51436E+02-1.97675E+02
 -1       526 5.00000E+02 4.42321E+02-5.55821E+01
 -1       527 5.00000E+02 5.55821E+01-4.42321E+02
 -1       528 5.00000E+02-4.42321E+02-5.55821E+01
 -1       529 5.00000E+02-5.55821E+01 4.42321E+02
 -1       530 5.00000E+02-2.66505E+02 4.42786E+02
 -1       531 5.00000E+02 4.42786E+02-2.66505E+02
 -1       532 5.00000E+02-2.66505E+02-4.42786E+02
 -1       533 5.00000E+02-4.42786E+02 2.66505E+02
 -1       534 5.00000E+02-4.42786E+02-2.66505E+02
 -1       535 5.00000E+02 4.42786E+02 2.66505E+02
 -1       536 5.00000E+02 2.66505E+02 4.42786E+02
 -1       537 5.00000E+02 2.66505E+02-4.42786E+02
 -1       538 5.00000E+02 2.13726E+02 1.51289E+02
 -1       539 5.00000E+02 4.88383E+01-2.47138E+02
 -1       540 5.00000E+02-2.52255E+02-5.15153E+01
 -1       541 5.00000E+02-1.47566E+02-7.81083E-01
 -1       542 5.00000E+02 3.62582E+02-8.76768E+01
 -1       543 5.00000E+02 9.12141E+01-1.94182E+02
 -1       544 5.00000E+02 1.99331E+02-1.50219E+02
 -1       545 5.00000E+02 1.45433E+02 2.01893E+02
 -1       546 5.00000E+02-1.96573E+02-6.93949E+01
 -1       547 5.00000E+02 1.50544E+02-2.10638E+02
 -1       548 5.00000E+02 3.68722E+02 4.45022E+02
 -1       549 5.00000E+02 4.44825E+02 3.75365E+02
 -1       550 5.00000E+02 4.46822E+02-3.67114E+02
 -1       551 5.00000E+02-4.43261E+02-3.76765E+02
 -1       552 5.00000E+02-4.46822E+02 3.67114E+02
 -1       553 5.00000E+02-3.76765E+02 4.43261E+02
 -1       554 5.00000E+02-3.67114E+02-4.46822E+02
 -1       555 5.00000E+02 3.76765E+02-4.43261E+02
 -1       556 5.00000E+02 3.55316E+01 1.51272E+02
 -1       557 5.00000E+02 1.37242E+02 2.18809E+01
 -1       558 5.00000E+02-1.94107E+02 1.07399E+02
 -1       559 5.00000E+02-9.85971E+01-1.92782E+02
 -1       560 5.00000E+02-4.71298E+01 2.54418E+02
 -1       561 5.00000E+02 2.53976E+02 4.75622E+01
 -1       562 5.00000E+02-9.31449E+01 3.61543E+02
 -1       563 5.00000E+02 9.20237E+01-3.61030E+02
 -1       564 5.00000E+02-3.70942E+02-9.39834E+01
 -1       565 5.00000E+02 2.48926E+02 2.41327E+02
 -1       566 5.00000E+02-2.45456E+02-2.47694E+02
 -1       567 5.00000E+02-2.45571E+02 2.47595E+02
 -1       568 5.00000E+02 2.41317E+02-2.48932E+02
 -1       569 5.00000E+02-2.95430E+02-1.16829E+02
 -1       570 5.00000E+02-4.46614E+02 2.12767E+02
 -1       571 5.00000E+02-2.12767E+02-4.46614E+02
 -1       572 5.00000E+02 4.46614E+02 2.12767E+02
 -1       573 5.00000E+02 2.12767E+02 4.46614E+02
 -1       574 5.00000E+02 3.51402E+02 3.77656E+02
 -1       575 5.00000E+02 3.61863E+02-3.75712E+02
 -1       576 5.00000E+02-3.76719E+02-3.52347E+02
 -1       577 5.00000E+02-3.61863E+02 3.75712E+02
 -1       578 5.00000E+02-9.53703E+01-5.14390E+01
 -1       579 5.00000E+02 2.89454E+02 2.85833E+02
 -1       580 5.00000E+02-2.87170E+02-2.90735E+02