    1C
    1UUSER                                                              
    1UDATE              18.february.2022                                
    1UTIME              13:24:10                                        
    1UHOST                                                              
    1UPGM               CalculiX                                        
    1UVERSION           Version 2.12                             
    1UCOMPILETIME       Tue, Apr 04, 2017  8:36:16 PM                    
    1UDIR                                                               
    1UDBN                                                               
    1UMAT    1SI1                                                       
    1UMAT    2SI2                                                       
    1UMAT    3SI3                                                       
    1UMAT    4SI4                                                       
    1UMAT    5SI5                                                       
    1UMAT    6SI6                                                       
    1UMAT    7BASEPLATEXZ_MATERIAL                                      
    1UMAT    8BASEPLATEXY_MATERIAL                                      
    1UMAT    9BASEPLATEYZ_MATERIAL                                      
    1UMAT   10PAYLOADSCIENCE_MATERIAL                                   
    1UMAT   11PAYLOADCOMMUNICATIONS_MATERIAL                            
    1UMAT   12POWERBATTERY_MATERIAL                                     
    2C                         10193                                     1
 -1         1-1.00000E+00-1.00000E+01 4.99000E+02
 -1         2-1.00000E+00-1.00000E+01-1.00000E+00
 -1         3-1.00000E+00 0.00000E+00 4.99000E+02
 -1         4-1.00000E+00 0.00000E+00-1.00000E+00
 -1         5-1.00000E+00 0.00000E+00 0.00000E+00
 -1         6 4.99000E+02-1.00000E+01 4.99000E+02
 -1         7 4.99000E+02-1.00000E+01-1.00000E+00
 -1         8 4.99000E+02 0.00000E+00 4.99000E+02
 -1         9 4.99000E+02 0.00000E+00-1.00000E+00
 -1        10 4.99000E+02 0.00000E+00 0.00000E+00
 -1        11 0.00000E+00 0.00000E+00 0.00000E+00
 -1        12 0.00000E+00 0.00000E+00 4.99000E+02
 -1        13 4.75000E+02 0.00000E+00 2.09950E+02
 -1        14 4.75000E+02 0.00000E+00 1.90050E+02
 -1        15 3.25000E+02 0.00000E+00 1.90050E+02
 -1        16 3.25000E+02 0.00000E+00 2.09950E+02
 -1        17-1.00000E+00-1.00000E+01 4.90000E+01
 -1        18-1.00000E+00-1.00000E+01 9.90000E+01
 -1        19-1.00000E+00-1.00000E+01 1.49000E+02
 -1        20-1.00000E+00-1.00000E+01 1.99000E+02
 -1        21-1.00000E+00-1.00000E+01 2.49000E+02
 -1        22-1.00000E+00-1.00000E+01 2.99000E+02
 -1        23-1.00000E+00-1.00000E+01 3.49000E+02
 -1        24-1.00000E+00-1.00000E+01 3.99000E+02
 -1        25-1.00000E+00-1.00000E+01 4.49000E+02
 -1        26-1.00000E+00-1.00000E+01 2.40000E+01
 -1        27-1.00000E+00-1.00000E+01 7.40000E+01
 -1        28-1.00000E+00-1.00000E+01 1.24000E+02
 -1        29-1.00000E+00-1.00000E+01 1.74000E+02
 -1        30-1.00000E+00-1.00000E+01 2.24000E+02
 -1        31-1.00000E+00-1.00000E+01 2.74000E+02
 -1        32-1.00000E+00-1.00000E+01 3.24000E+02
 -1        33-1.00000E+00-1.00000E+01 3.74000E+02
 -1        34-1.00000E+00-1.00000E+01 4.24000E+02
 -1        35-1.00000E+00-1.00000E+01 4.74000E+02
 -1        36-1.00000E+00-5.00000E+00 4.99000E+02
 -1        37-1.00000E+00 0.00000E+00-5.00000E-01
 -1        38-1.00000E+00 0.00000E+00 4.99000E+01
 -1        39-1.00000E+00 0.00000E+00 9.98000E+01
 -1        40-1.00000E+00 0.00000E+00 1.49700E+02
 -1        41-1.00000E+00 0.00000E+00 1.99600E+02
 -1        42-1.00000E+00 0.00000E+00 2.49500E+02
 -1        43-1.00000E+00 0.00000E+00 2.99400E+02
 -1        44-1.00000E+00 0.00000E+00 3.49300E+02
 -1        45-1.00000E+00 0.00000E+00 3.99200E+02
 -1        46-1.00000E+00 0.00000E+00 4.49100E+02
 -1        47-1.00000E+00 0.00000E+00 2.49500E+01
 -1        48-1.00000E+00 0.00000E+00 7.48500E+01
 -1        49-1.00000E+00 0.00000E+00 1.24750E+02
 -1        50-1.00000E+00 0.00000E+00 1.74650E+02
 -1        51-1.00000E+00 0.00000E+00 2.24550E+02
 -1        52-1.00000E+00 0.00000E+00 2.74450E+02
 -1        53-1.00000E+00 0.00000E+00 3.24350E+02
 -1        54-1.00000E+00 0.00000E+00 3.74250E+02
 -1        55-1.00000E+00 0.00000E+00 4.24150E+02
 -1        56-1.00000E+00 0.00000E+00 4.74050E+02
 -1        57-1.00000E+00-5.00000E+00-1.00000E+00
 -1        58 4.99000E+02-1.00000E+01 4.90000E+01
 -1        59 4.99000E+02-1.00000E+01 9.90000E+01
 -1        60 4.99000E+02-1.00000E+01 1.49000E+02
 -1        61 4.99000E+02-1.00000E+01 1.99000E+02
 -1        62 4.99000E+02-1.00000E+01 2.49000E+02
 -1        63 4.99000E+02-1.00000E+01 2.99000E+02
 -1        64 4.99000E+02-1.00000E+01 3.49000E+02
 -1        65 4.99000E+02-1.00000E+01 3.99000E+02
 -1        66 4.99000E+02-1.00000E+01 4.49000E+02
 -1        67 4.99000E+02-1.00000E+01 2.40000E+01
 -1        68 4.99000E+02-1.00000E+01 7.40000E+01
 -1        69 4.99000E+02-1.00000E+01 1.24000E+02
 -1        70 4.99000E+02-1.00000E+01 1.74000E+02
 -1        71 4.99000E+02-1.00000E+01 2.24000E+02
 -1        72 4.99000E+02-1.00000E+01 2.74000E+02
 -1        73 4.99000E+02-1.00000E+01 3.24000E+02
 -1        74 4.99000E+02-1.00000E+01 3.74000E+02
 -1        75 4.99000E+02-1.00000E+01 4.24000E+02
 -1        76 4.99000E+02-1.00000E+01 4.74000E+02
 -1        77 4.99000E+02-5.00000E+00 4.99000E+02
 -1        78 4.99000E+02 0.00000E+00-5.00000E-01
 -1        79 4.99000E+02 0.00000E+00 4.99000E+01
 -1        80 4.99000E+02 0.00000E+00 9.98000E+01
 -1        81 4.99000E+02 0.00000E+00 1.49700E+02
 -1        82 4.99000E+02 0.00000E+00 1.99600E+02
 -1        83 4.99000E+02 0.00000E+00 2.49500E+02
 -1        84 4.99000E+02 0.00000E+00 2.99400E+02
 -1        85 4.99000E+02 0.00000E+00 3.49300E+02
 -1        86 4.99000E+02 0.00000E+00 3.99200E+02
 -1        87 4.99000E+02 0.00000E+00 4.49100E+02
 -1        88 4.99000E+02 0.00000E+00 2.49500E+01
 -1        89 4.99000E+02 0.00000E+00 7.48500E+01
 -1        90 4.99000E+02 0.00000E+00 1.24750E+02
 -1        91 4.99000E+02 0.00000E+00 1.74650E+02
 -1        92 4.99000E+02 0.00000E+00 2.24550E+02
 -1        93 4.99000E+02 0.00000E+00 2.74450E+02
 -1        94 4.99000E+02 0.00000E+00 3.24350E+02
 -1        95 4.99000E+02 0.00000E+00 3.74250E+02
 -1        96 4.99000E+02 0.00000E+00 4.24150E+02
 -1        97 4.99000E+02 0.00000E+00 4.74050E+02
 -1        98 4.99000E+02-5.00000E+00-1.00000E+00
 -1        99 4.90000E+01-1.00000E+01-1.00000E+00
 -1       100 9.90000E+01-1.00000E+01-1.00000E+00
 -1       101 1.49000E+02-1.00000E+01-1.00000E+00
 -1       102 1.99000E+02-1.00000E+01-1.00000E+00
 -1       103 2.49000E+02-1.00000E+01-1.00000E+00
 -1       104 2.99000E+02-1.00000E+01-1.00000E+00
 -1       105 3.49000E+02-1.00000E+01-1.00000E+00
 -1       106 3.99000E+02-1.00000E+01-1.00000E+00
 -1       107 4.49000E+02-1.00000E+01-1.00000E+00
 -1       108 2.40000E+01-1.00000E+01-1.00000E+00
 -1       109 7.40000E+01-1.00000E+01-1.00000E+00
 -1       110 1.24000E+02-1.00000E+01-1.00000E+00
 -1       111 1.74000E+02-1.00000E+01-1.00000E+00
 -1       112 2.24000E+02-1.00000E+01-1.00000E+00
 -1       113 2.74000E+02-1.00000E+01-1.00000E+00
 -1       114 3.24000E+02-1.00000E+01-1.00000E+00
 -1       115 3.74000E+02-1.00000E+01-1.00000E+00
 -1       116 4.24000E+02-1.00000E+01-1.00000E+00
 -1       117 4.74000E+02-1.00000E+01-1.00000E+00
 -1       118 4.90000E+01-1.00000E+01 4.99000E+02
 -1       119 9.90000E+01-1.00000E+01 4.99000E+02
 -1       120 1.49000E+02-1.00000E+01 4.99000E+02
 -1       121 1.99000E+02-1.00000E+01 4.99000E+02
 -1       122 2.49000E+02-1.00000E+01 4.99000E+02
 -1       123 2.99000E+02-1.00000E+01 4.99000E+02
 -1       124 3.49000E+02-1.00000E+01 4.99000E+02
 -1       125 3.99000E+02-1.00000E+01 4.99000E+02
 -1       126 4.49000E+02-1.00000E+01 4.99000E+02
 -1       127 2.40000E+01-1.00000E+01 4.99000E+02
 -1       128 7.40000E+01-1.00000E+01 4.99000E+02
 -1       129 1.24000E+02-1.00000E+01 4.99000E+02
 -1       130 1.74000E+02-1.00000E+01 4.99000E+02
 -1       131 2.24000E+02-1.00000E+01 4.99000E+02
 -1       132 2.74000E+02-1.00000E+01 4.99000E+02
 -1       133 3.24000E+02-1.00000E+01 4.99000E+02
 -1       134 3.74000E+02-1.00000E+01 4.99000E+02
 -1       135 4.24000E+02-1.00000E+01 4.99000E+02
 -1       136 4.74000E+02-1.00000E+01 4.99000E+02
 -1       137 4.90000E+01 0.00000E+00-1.00000E+00
 -1       138 9.90000E+01 0.00000E+00-1.00000E+00
 -1       139 1.49000E+02 0.00000E+00-1.00000E+00
 -1       140 1.99000E+02 0.00000E+00-1.00000E+00
 -1       141 2.49000E+02 0.00000E+00-1.00000E+00
 -1       142 2.99000E+02 0.00000E+00-1.00000E+00
 -1       143 3.49000E+02 0.00000E+00-1.00000E+00
 -1       144 3.99000E+02 0.00000E+00-1.00000E+00
 -1       145 4.49000E+02 0.00000E+00-1.00000E+00
 -1       146 2.40000E+01 0.00000E+00-1.00000E+00
 -1       147 7.40000E+01 0.00000E+00-1.00000E+00
 -1       148 1.24000E+02 0.00000E+00-1.00000E+00
 -1       149 1.74000E+02 0.00000E+00-1.00000E+00
 -1       150 2.24000E+02 0.00000E+00-1.00000E+00
 -1       151 2.74000E+02 0.00000E+00-1.00000E+00
 -1       152 3.24000E+02 0.00000E+00-1.00000E+00
 -1       153 3.74000E+02 0.00000E+00-1.00000E+00
 -1       154 4.24000E+02 0.00000E+00-1.00000E+00
 -1       155 4.74000E+02 0.00000E+00-1.00000E+00
 -1       156 4.99000E+01 0.00000E+00 0.00000E+00
 -1       157 9.98000E+01 0.00000E+00 0.00000E+00
 -1       158 1.49700E+02 0.00000E+00 0.00000E+00
 -1       159 1.99600E+02 0.00000E+00 0.00000E+00
 -1       160 2.49500E+02 0.00000E+00 0.00000E+00
 -1       161 2.99400E+02 0.00000E+00 0.00000E+00
 -1       162 3.49300E+02 0.00000E+00 0.00000E+00
 -1       163 3.99200E+02 0.00000E+00 0.00000E+00
 -1       164 4.49100E+02 0.00000E+00 0.00000E+00
 -1       165 2.49500E+01 0.00000E+00 0.00000E+00
 -1       166 7.48500E+01 0.00000E+00 0.00000E+00
 -1       167 1.24750E+02 0.00000E+00 0.00000E+00
 -1       168 1.74650E+02 0.00000E+00 0.00000E+00
 -1       169 2.24550E+02 0.00000E+00 0.00000E+00
 -1       170 2.74450E+02 0.00000E+00 0.00000E+00
 -1       171 3.24350E+02 0.00000E+00 0.00000E+00
 -1       172 3.74250E+02 0.00000E+00 0.00000E+00
 -1       173 4.24150E+02 0.00000E+00 0.00000E+00
 -1       174 4.74050E+02 0.00000E+00 0.00000E+00
 -1       175-5.00000E-01 0.00000E+00 0.00000E+00
 -1       176 0.00000E+00 0.00000E+00 4.99000E+01
 -1       177 0.00000E+00 0.00000E+00 9.98000E+01
 -1       178 0.00000E+00 0.00000E+00 1.49700E+02
 -1       179 0.00000E+00 0.00000E+00 1.99600E+02
 -1       180 0.00000E+00 0.00000E+00 2.49500E+02
 -1       181 0.00000E+00 0.00000E+00 2.99400E+02
 -1       182 0.00000E+00 0.00000E+00 3.49300E+02
 -1       183 0.00000E+00 0.00000E+00 3.99200E+02
 -1       184 0.00000E+00 0.00000E+00 4.49100E+02
 -1       185 0.00000E+00 0.00000E+00 2.49500E+01
 -1       186 0.00000E+00 0.00000E+00 7.48500E+01
 -1       187 0.00000E+00 0.00000E+00 1.24750E+02
 -1       188 0.00000E+00 0.00000E+00 1.74650E+02
 -1       189 0.00000E+00 0.00000E+00 2.24550E+02
 -1       190 0.00000E+00 0.00000E+00 2.74450E+02
 -1       191 0.00000E+00 0.00000E+00 3.24350E+02
 -1       192 0.00000E+00 0.00000E+00 3.74250E+02
 -1       193 0.00000E+00 0.00000E+00 4.24150E+02
 -1       194 0.00000E+00 0.00000E+00 4.74050E+02
 -1       195-5.00000E-01 0.00000E+00 4.99000E+02
 -1       196 4.99000E+01 0.00000E+00 4.99000E+02
 -1       197 9.98000E+01 0.00000E+00 4.99000E+02
 -1       198 1.49700E+02 0.00000E+00 4.99000E+02
 -1       199 1.99600E+02 0.00000E+00 4.99000E+02
 -1       200 2.49500E+02 0.00000E+00 4.99000E+02
 -1       201 2.99400E+02 0.00000E+00 4.99000E+02
 -1       202 3.49300E+02 0.00000E+00 4.99000E+02
 -1       203 3.99200E+02 0.00000E+00 4.99000E+02
 -1       204 4.49100E+02 0.00000E+00 4.99000E+02
 -1       205 2.49500E+01 0.00000E+00 4.99000E+02
 -1       206 7.48500E+01 0.00000E+00 4.99000E+02
 -1       207 1.24750E+02 0.00000E+00 4.99000E+02
 -1       208 1.74650E+02 0.00000E+00 4.99000E+02
 -1       209 2.24550E+02 0.00000E+00 4.99000E+02
 -1       210 2.74450E+02 0.00000E+00 4.99000E+02
 -1       211 3.24350E+02 0.00000E+00 4.99000E+02
 -1       212 3.74250E+02 0.00000E+00 4.99000E+02
 -1       213 4.24150E+02 0.00000E+00 4.99000E+02
 -1       214 4.74050E+02 0.00000E+00 4.99000E+02
 -1       215 4.75000E+02 0.00000E+00 2.00000E+02
 -1       216 4.45000E+02 0.00000E+00 1.90050E+02
 -1       217 4.15000E+02 0.00000E+00 1.90050E+02
 -1       218 3.85000E+02 0.00000E+00 1.90050E+02
 -1       219 3.55000E+02 0.00000E+00 1.90050E+02
 -1       220 4.60000E+02 0.00000E+00 1.90050E+02
 -1       221 4.30000E+02 0.00000E+00 1.90050E+02
 -1       222 4.00000E+02 0.00000E+00 1.90050E+02
 -1       223 3.70000E+02 0.00000E+00 1.90050E+02
 -1       224 3.40000E+02 0.00000E+00 1.90050E+02
 -1       225 3.25000E+02 0.00000E+00 2.00000E+02
 -1       226 4.45000E+02 0.00000E+00 2.09950E+02
 -1       227 4.15000E+02 0.00000E+00 2.09950E+02
 -1       228 3.85000E+02 0.00000E+00 2.09950E+02
 -1       229 3.55000E+02 0.00000E+00 2.09950E+02
 -1       230 4.60000E+02 0.00000E+00 2.09950E+02
 -1       231 4.30000E+02 0.00000E+00 2.09950E+02
 -1       232 4.00000E+02 0.00000E+00 2.09950E+02
 -1       233 3.70000E+02 0.00000E+00 2.09950E+02
 -1       234 3.40000E+02 0.00000E+00 2.09950E+02
 -1       235-1.00000E+00-5.00000E+00 4.74050E+02
 -1       236-1.00000E+00-5.00000E+00 4.49050E+02
 -1       237-1.00000E+00-5.00000E+00-5.00000E-01
 -1       238-1.00000E+00-5.00000E+00 2.45000E+01
 -1       239-1.00000E+00-5.00000E+00 4.94500E+01
 -1       240-1.00000E+00-5.00000E+00 7.44500E+01
 -1       241-1.00000E+00-5.00000E+00 1.24400E+02
 -1       242-1.00000E+00-5.00000E+00 9.94000E+01
 -1       243-1.00000E+00-5.00000E+00 1.74350E+02
 -1       244-1.00000E+00-5.00000E+00 1.49350E+02
 -1       245-1.00000E+00-5.00000E+00 2.24300E+02
 -1       246-1.00000E+00-5.00000E+00 1.99300E+02
 -1       247-1.00000E+00-5.00000E+00 2.74250E+02
 -1       248-1.00000E+00-5.00000E+00 2.49250E+02
 -1       249-1.00000E+00-5.00000E+00 3.24200E+02
 -1       250-1.00000E+00-5.00000E+00 2.99200E+02
 -1       251-1.00000E+00-5.00000E+00 3.74150E+02
 -1       252-1.00000E+00-5.00000E+00 3.49150E+02
 -1       253-1.00000E+00-5.00000E+00 4.24100E+02
 -1       254-1.00000E+00-5.00000E+00 3.99100E+02
 -1       255 4.99000E+02-5.00000E+00 4.74050E+02
 -1       256 4.99000E+02-5.00000E+00 4.49050E+02
 -1       257 4.99000E+02-5.00000E+00-5.00000E-01
 -1       258 4.99000E+02-5.00000E+00 2.45000E+01
 -1       259 4.99000E+02-5.00000E+00 4.94500E+01
 -1       260 4.99000E+02-5.00000E+00 7.44500E+01
 -1       261 4.99000E+02-5.00000E+00 9.94000E+01
 -1       262 4.99000E+02-5.00000E+00 1.24400E+02
 -1       263 4.99000E+02-5.00000E+00 1.49350E+02
 -1       264 4.99000E+02-5.00000E+00 1.74350E+02
 -1       265 4.99000E+02-5.00000E+00 1.99300E+02
 -1       266 4.99000E+02-5.00000E+00 2.24300E+02
 -1       267 4.99000E+02-5.00000E+00 2.49250E+02
 -1       268 4.99000E+02-5.00000E+00 2.74250E+02
 -1       269 4.99000E+02-5.00000E+00 2.99200E+02
 -1       270 4.99000E+02-5.00000E+00 3.24200E+02
 -1       271 4.99000E+02-5.00000E+00 3.49150E+02
 -1       272 4.99000E+02-5.00000E+00 3.74150E+02
 -1       273 4.99000E+02-5.00000E+00 3.99100E+02
 -1       274 4.99000E+02-5.00000E+00 4.24100E+02
 -1       275 2.51869E+02-1.00000E+01 2.53627E+02
 -1       276 1.39186E+02-1.00000E+01 1.46793E+02
 -1       277 1.38146E+02-1.00000E+01 3.50773E+02
 -1       278 3.52571E+02-1.00000E+01 1.45429E+02
 -1       279 3.52571E+02-1.00000E+01 3.52571E+02
 -1       280 3.86929E+02-1.00000E+01 2.52467E+02
 -1       281 2.48068E+02-1.00000E+01 3.86891E+02
 -1       282 1.07397E+02-1.00000E+01 2.47267E+02
 -1       283 2.49000E+02-1.00000E+01 1.08843E+02
 -1       284 4.13749E+02-1.00000E+01 8.42513E+01
 -1       285 8.42513E+01-1.00000E+01 8.42513E+01
 -1       286 8.42513E+01-1.00000E+01 4.13749E+02
 -1       287 4.13749E+02-1.00000E+01 4.13749E+02
 -1       288 3.19355E+02-1.00000E+01 7.45670E+01
 -1       289 7.13984E+01-1.00000E+01 3.22885E+02
 -1       290 4.23433E+02-1.00000E+01 3.19355E+02
 -1       291 4.23433E+02-1.00000E+01 1.78645E+02
 -1       292 3.18171E+02-1.00000E+01 4.22973E+02
 -1       293 7.45670E+01-1.00000E+01 1.78645E+02
 -1       294 1.78645E+02-1.00000E+01 7.45670E+01
 -1       295 1.78697E+02-1.00000E+01 4.23248E+02
 -1       296 1.77458E+02-1.00000E+01 2.17018E+02
 -1       297 2.86436E+02-1.00000E+01 3.13376E+02
 -1       298 3.20025E+02-1.00000E+01 2.16485E+02
 -1       299 1.86383E+02-1.00000E+01 2.89955E+02
 -1       300 2.58550E+02-1.00000E+01 1.78922E+02
 -1       301 3.37268E+02-1.00000E+01 2.87018E+02
 -1       302 2.09446E+02-1.00000E+01 3.46058E+02
 -1       303 2.05456E+02-1.00000E+01 1.50467E+02
 -1       304 5.38818E+01-1.00000E+01 2.29216E+02
 -1       305 2.69060E+02-1.00000E+01 5.48945E+01
 -1       306 2.68815E+02-1.00000E+01 4.47138E+02
 -1       307 4.44078E+02-1.00000E+01 2.32230E+02
 -1       308 2.91069E+02-1.00000E+01 1.37676E+02
 -1       309 4.49305E+02-1.00000E+01 3.69149E+02
 -1       310 4.86953E+01-1.00000E+01 1.28851E+02
 -1       311 4.49305E+02-1.00000E+01 1.28851E+02
 -1       312 1.29463E+02-1.00000E+01 4.78326E+01
 -1       313 3.68537E+02-1.00000E+01 4.78326E+01
 -1       314 4.84043E+01-1.00000E+01 3.69070E+02
 -1       315 1.28854E+02-1.00000E+01 4.49291E+02
 -1       316 3.68416E+02-1.00000E+01 4.50120E+02
 -1       317 1.34233E+02-1.00000E+01 2.97984E+02
 -1       318 3.02751E+02-1.00000E+01 3.69542E+02
 -1       319 1.28783E+02-1.00000E+01 1.98569E+02
 -1       320 3.60749E+02-1.00000E+01 2.02280E+02
 -1       321 2.36910E+02-1.00000E+01 2.97760E+02
 -1       322 2.97915E+02-1.00000E+01 2.61286E+02
 -1       323 4.74445E+01-1.00000E+01 4.74445E+01
 -1       324 4.53162E+02-1.00000E+01 4.48381E+01
 -1       325 4.68467E+01-1.00000E+01 4.51153E+02
 -1       326 4.49061E+02-1.00000E+01 4.49061E+02
 -1       327 4.57376E+02-1.00000E+01 2.84039E+02
 -1       328 2.14509E+02-1.00000E+01 4.07865E+01
 -1       329 4.00896E+01-1.00000E+01 2.84125E+02
 -1       330 2.16289E+02-1.00000E+01 4.58741E+02
 -1       331 1.30488E+02-1.00000E+01 3.98808E+02
 -1       332 3.98808E+02-1.00000E+01 1.30488E+02
 -1       333 9.91917E+01-1.00000E+01 1.30488E+02
 -1       334 3.96653E+02-1.00000E+01 3.61501E+02
 -1       335 1.35103E+02-1.00000E+01 9.83674E+01
 -1       336 3.62897E+02-1.00000E+01 3.99633E+02
 -1       337 3.62897E+02-1.00000E+01 9.83674E+01
 -1       338 9.71150E+01-1.00000E+01 3.63924E+02
 -1       339 1.54994E+02-1.00000E+01 2.55503E+02
 -1       340 2.21220E+02-1.00000E+01 2.06117E+02
 -1       341 3.76082E+02-1.00000E+01 3.11380E+02
 -1       342 2.05257E+02-1.00000E+01 2.50465E+02
 -1       343 2.54438E+02-1.00000E+01 3.43656E+02
 -1       344 2.06321E+02-1.00000E+01 3.92036E+02
 -1       345 1.78000E+02-1.00000E+01 1.17480E+02
 -1       346 3.42319E+02-1.00000E+01 2.45028E+02
 -1       347 3.15151E+02-1.00000E+01 1.78176E+02
 -1       348 2.76796E+02-1.00000E+01 2.17098E+02
 -1       349 4.62963E+02-1.00000E+01 1.77545E+02
 -1       350 3.20990E+02-1.00000E+01 3.50588E+01
 -1       351 3.50288E+01-1.00000E+01 1.76942E+02
 -1       352 3.15784E+01-1.00000E+01 3.24816E+02
 -1       353 4.65623E+02-1.00000E+01 3.24109E+02
 -1       354 1.74123E+02-1.00000E+01 3.22372E+01
 -1       355 1.74368E+02-1.00000E+01 4.65856E+02
 -1       356 3.20680E+02-1.00000E+01 4.63646E+02
 -1       357 4.59014E+02-1.00000E+01 8.89491E+01
 -1       358 3.89857E+01-1.00000E+01 8.89491E+01
 -1       359 3.89857E+01-1.00000E+01 4.09051E+02
 -1       360 4.09051E+02-1.00000E+01 4.59014E+02
 -1       361 8.70964E+01-1.00000E+01 3.80798E+01
 -1       362 8.89491E+01-1.00000E+01 4.59014E+02
 -1       363 4.09051E+02-1.00000E+01 3.89857E+01
 -1       364 4.59014E+02-1.00000E+01 4.09051E+02
 -1       365 1.73153E+02-1.00000E+01 1.75221E+02
 -1       366 3.25404E+02-1.00000E+01 3.26343E+02
 -1       367 2.88623E+02-1.00000E+01 9.87405E+01
 -1       368 4.17580E+02-1.00000E+01 2.79894E+02
 -1       369 2.16227E+02-1.00000E+01 8.92570E+01
 -1       370 8.61670E+01-1.00000E+01 2.84956E+02
 -1       371 9.05951E+01-1.00000E+01 2.12132E+02
 -1       372 2.80415E+02-1.00000E+01 4.08881E+02
 -1       373 4.06771E+02-1.00000E+01 2.12753E+02
 -1       374 1.72747E+02-1.00000E+01 3.72846E+02
 -1       375 3.25323E+02-1.00000E+01 1.12153E+02
 -1       376 1.70734E+02-1.00000E+01 3.28893E+02
 -1       377 2.42320E+02-1.00000E+01 1.45443E+02
 -1       378 1.07660E+02-1.00000E+01 3.26141E+02
 -1       379 2.68282E+02-1.00000E+01 2.81512E+02
 -1       380 2.33101E+02-1.00000E+01 4.19489E+02
 -1       381 3.89674E+02-1.00000E+01 1.65533E+02
 -1       382 1.08326E+02-1.00000E+01 1.65533E+02
 -1       383 2.29234E+01-1.00000E+01 4.50077E+02
 -1       384 2.29234E+01-1.00000E+01 4.75077E+02
 -1       385 4.79234E+01-1.00000E+01 4.75077E+02
 -1       386 2.32223E+01-1.00000E+01 2.32223E+01
 -1       387 2.32223E+01-1.00000E+01 4.82223E+01
 -1       388 4.82223E+01-1.00000E+01 2.32223E+01
 -1       389 4.74030E+02-1.00000E+01 4.74030E+02
 -1       390 4.74030E+02-1.00000E+01 4.49030E+02
 -1       391 4.49030E+02-1.00000E+01 4.74030E+02
 -1       392 4.76081E+02-1.00000E+01 4.69190E+01
 -1       393 4.76081E+02-1.00000E+01 2.19190E+01
 -1       394 4.51081E+02-1.00000E+01 2.19190E+01
 -1       395 1.89929E+01-1.00000E+01 6.89746E+01
 -1       396 1.89929E+01-1.00000E+01 9.39746E+01
 -1       397 4.32151E+01-1.00000E+01 6.81968E+01
 -1       398 2.38476E+01-1.00000E+01 1.13925E+02
 -1       399 2.38476E+01-1.00000E+01 1.38925E+02
 -1       400 4.38405E+01-1.00000E+01 1.08900E+02
 -1       401 1.70144E+01-1.00000E+01 1.62971E+02
 -1       402 1.70144E+01-1.00000E+01 1.87971E+02
 -1       403 4.18620E+01-1.00000E+01 1.52896E+02
 -1       404 2.64409E+01-1.00000E+01 2.14108E+02
 -1       405 2.64409E+01-1.00000E+01 2.39108E+02
 -1       406 4.44553E+01-1.00000E+01 2.03079E+02
 -1       407 1.95448E+01-1.00000E+01 2.66563E+02
 -1       408 1.95448E+01-1.00000E+01 2.91563E+02
 -1       409 4.69857E+01-1.00000E+01 2.56670E+02
 -1       410 1.52892E+01-1.00000E+01 3.11908E+02
 -1       411 1.52892E+01-1.00000E+01 3.36908E+02
 -1       412 3.58340E+01-1.00000E+01 3.04471E+02
 -1       413 2.37021E+01-1.00000E+01 3.59035E+02
 -1       414 2.37021E+01-1.00000E+01 3.84035E+02
 -1       415 3.99914E+01-1.00000E+01 3.46943E+02
 -1       416 1.89929E+01-1.00000E+01 4.04025E+02
 -1       417 1.89929E+01-1.00000E+01 4.29025E+02
 -1       418 4.36950E+01-1.00000E+01 3.89061E+02
 -1       419 4.29162E+01-1.00000E+01 4.30102E+02
 -1       420 4.79007E+02-1.00000E+01 9.39746E+01
 -1       421 4.79007E+02-1.00000E+01 6.89746E+01
 -1       422 4.56088E+02-1.00000E+01 6.68936E+01
 -1       423 4.74152E+02-1.00000E+01 1.38925E+02
 -1       424 4.74152E+02-1.00000E+01 1.13925E+02
 -1       425 4.54160E+02-1.00000E+01 1.08900E+02
 -1       426 4.80982E+02-1.00000E+01 1.88273E+02
 -1       427 4.80982E+02-1.00000E+01 1.63273E+02
 -1       428 4.56134E+02-1.00000E+01 1.53198E+02
 -1       429 4.71539E+02-1.00000E+01 2.40615E+02
 -1       430 4.71539E+02-1.00000E+01 2.15615E+02
 -1       431 4.53521E+02-1.00000E+01 2.04888E+02
 -1       432 4.78188E+02-1.00000E+01 2.91520E+02
 -1       433 4.78188E+02-1.00000E+01 2.66520E+02
 -1       434 4.50727E+02-1.00000E+01 2.58135E+02
 -1       435 4.82311E+02-1.00000E+01 3.36554E+02
 -1       436 4.82311E+02-1.00000E+01 3.11554E+02
 -1       437 4.61499E+02-1.00000E+01 3.04074E+02
 -1       438 4.74152E+02-1.00000E+01 3.84075E+02
 -1       439 4.74152E+02-1.00000E+01 3.59075E+02
 -1       440 4.57464E+02-1.00000E+01 3.46629E+02
 -1       441 4.79007E+02-1.00000E+01 4.29025E+02
 -1       442 4.79007E+02-1.00000E+01 4.04025E+02
 -1       443 4.54160E+02-1.00000E+01 3.89100E+02
 -1       444 4.54038E+02-1.00000E+01 4.29056E+02
 -1       445 9.30482E+01-1.00000E+01 1.85399E+01
 -1       446 6.80482E+01-1.00000E+01 1.85399E+01
 -1       447 6.72705E+01-1.00000E+01 4.27622E+01
 -1       448 1.39232E+02-1.00000E+01 2.34163E+01
 -1       449 1.14232E+02-1.00000E+01 2.34163E+01
 -1       450 1.08280E+02-1.00000E+01 4.29562E+01
 -1       451 1.86562E+02-1.00000E+01 1.56186E+01
 -1       452 1.61562E+02-1.00000E+01 1.56186E+01
 -1       453 1.51793E+02-1.00000E+01 4.00349E+01
 -1       454 2.31755E+02-1.00000E+01 1.98932E+01
 -1       455 2.06755E+02-1.00000E+01 1.98932E+01
 -1       456 1.94316E+02-1.00000E+01 3.65118E+01
 -1       457 2.84030E+02-1.00000E+01 2.69472E+01
 -1       458 2.59030E+02-1.00000E+01 2.69472E+01
 -1       459 2.41785E+02-1.00000E+01 4.78405E+01
 -1       460 3.34995E+02-1.00000E+01 1.70294E+01
 -1       461 3.09995E+02-1.00000E+01 1.70294E+01
 -1       462 2.95025E+02-1.00000E+01 4.49766E+01
 -1       463 3.83768E+02-1.00000E+01 2.34163E+01
 -1       464 3.58768E+02-1.00000E+01 2.34163E+01
 -1       465 3.44764E+02-1.00000E+01 4.14457E+01
 -1       466 4.29025E+02-1.00000E+01 1.89929E+01
 -1       467 4.04025E+02-1.00000E+01 1.89929E+01
 -1       468 3.88794E+02-1.00000E+01 4.34091E+01
 -1       469 4.31106E+02-1.00000E+01 4.19119E+01
 -1       470 6.89746E+01-1.00000E+01 4.79007E+02
 -1       471 9.39746E+01-1.00000E+01 4.79007E+02
 -1       472 6.78979E+01-1.00000E+01 4.55084E+02
 -1       473 1.13927E+02-1.00000E+01 4.74146E+02
 -1       474 1.38927E+02-1.00000E+01 4.74146E+02
 -1       475 1.08902E+02-1.00000E+01 4.54153E+02
 -1       476 1.61684E+02-1.00000E+01 4.82428E+02
 -1       477 1.86684E+02-1.00000E+01 4.82428E+02
 -1       478 1.51611E+02-1.00000E+01 4.57574E+02
 -1       479 2.07644E+02-1.00000E+01 4.78871E+02
 -1       480 2.32644E+02-1.00000E+01 4.78871E+02
 -1       481 1.95328E+02-1.00000E+01 4.62299E+02
 -1       482 2.58907E+02-1.00000E+01 4.73069E+02
 -1       483 2.83907E+02-1.00000E+01 4.73069E+02
 -1       484 2.42552E+02-1.00000E+01 4.52940E+02
 -1       485 3.09840E+02-1.00000E+01 4.81323E+02
 -1       486 3.34840E+02-1.00000E+01 4.81323E+02
 -1       487 2.94747E+02-1.00000E+01 4.55392E+02
 -1       488 3.58708E+02-1.00000E+01 4.74560E+02
 -1       489 3.83708E+02-1.00000E+01 4.74560E+02
 -1       490 3.44548E+02-1.00000E+01 4.56883E+02
 -1       491 4.04025E+02-1.00000E+01 4.79007E+02
 -1       492 4.29025E+02-1.00000E+01 4.79007E+02
 -1       493 3.88733E+02-1.00000E+01 4.54567E+02
 -1       494 4.29056E+02-1.00000E+01 4.54038E+02
 -1       495 2.44389E+02-1.00000E+01 2.75694E+02
 -1       496 2.21083E+02-1.00000E+01 2.74113E+02
 -1       497 2.28563E+02-1.00000E+01 2.52046E+02
 -1       498 2.60076E+02-1.00000E+01 2.67569E+02
 -1       499 2.52596E+02-1.00000E+01 2.89636E+02
 -1       500 2.74892E+02-1.00000E+01 2.57456E+02
 -1       501 2.64332E+02-1.00000E+01 2.35362E+02
 -1       502 2.87355E+02-1.00000E+01 2.39192E+02
 -1       503 2.83099E+02-1.00000E+01 2.71399E+02
 -1       504 2.36544E+02-1.00000E+01 2.29872E+02
 -1       505 2.13238E+02-1.00000E+01 2.28291E+02
 -1       506 2.49008E+02-1.00000E+01 2.11607E+02
 -1       507 1.33984E+02-1.00000E+01 1.72681E+02
 -1       508 1.56169E+02-1.00000E+01 1.61007E+02
 -1       509 1.50968E+02-1.00000E+01 1.86895E+02
 -1       510 1.18554E+02-1.00000E+01 1.82051E+02
 -1       511 1.23756E+02-1.00000E+01 1.56163E+02
 -1       512 1.19189E+02-1.00000E+01 1.38640E+02
 -1       513 1.17147E+02-1.00000E+01 1.14428E+02
 -1       514 1.37144E+02-1.00000E+01 1.22580E+02
 -1       515 1.03759E+02-1.00000E+01 1.48011E+02
 -1       516 1.56551E+02-1.00000E+01 1.07924E+02
 -1       517 1.58593E+02-1.00000E+01 1.32136E+02
 -1       518 1.75576E+02-1.00000E+01 1.46351E+02
 -1       519 1.36190E+02-1.00000E+01 3.24379E+02
 -1       520 1.52484E+02-1.00000E+01 3.13439E+02
 -1       521 1.54440E+02-1.00000E+01 3.39833E+02
 -1       522 1.22903E+02-1.00000E+01 3.38457E+02
 -1       523 1.20947E+02-1.00000E+01 3.12062E+02
 -1       524 1.34317E+02-1.00000E+01 3.74791E+02
 -1       525 1.13802E+02-1.00000E+01 3.81366E+02
 -1       526 1.17630E+02-1.00000E+01 3.57349E+02
 -1       527 1.55446E+02-1.00000E+01 3.61810E+02
 -1       528 1.51617E+02-1.00000E+01 3.85827E+02
 -1       529 1.02388E+02-1.00000E+01 3.45033E+02
 -1       530 1.71740E+02-1.00000E+01 3.50870E+02
 -1       531 3.21820E+02-1.00000E+01 1.41552E+02
 -1       532 3.33861E+02-1.00000E+01 1.61803E+02
 -1       533 3.03110E+02-1.00000E+01 1.57926E+02
 -1       534 3.08196E+02-1.00000E+01 1.24914E+02
 -1       535 3.38947E+02-1.00000E+01 1.28791E+02
 -1       536 3.56660E+02-1.00000E+01 1.73854E+02
 -1       537 3.37950E+02-1.00000E+01 1.90228E+02
 -1       538 3.71123E+02-1.00000E+01 1.55481E+02
 -1       539 3.75212E+02-1.00000E+01 1.83907E+02
 -1       540 3.75690E+02-1.00000E+01 1.37958E+02
 -1       541 3.57734E+02-1.00000E+01 1.21898E+02
 -1       542 3.80853E+02-1.00000E+01 1.14428E+02
 -1       543 3.94241E+02-1.00000E+01 1.48011E+02
 -1       544 3.44110E+02-1.00000E+01 1.05260E+02
 -1       545 3.27661E+02-1.00000E+01 3.61056E+02
 -1       546 3.57734E+02-1.00000E+01 3.76102E+02
 -1       547 3.32824E+02-1.00000E+01 3.84587E+02
 -1       548 3.14077E+02-1.00000E+01 3.47942E+02
 -1       549 3.38988E+02-1.00000E+01 3.39457E+02
 -1       550 3.74612E+02-1.00000E+01 3.57036E+02
 -1       551 3.79775E+02-1.00000E+01 3.80567E+02
 -1       552 3.64326E+02-1.00000E+01 3.31975E+02
 -1       553 3.86367E+02-1.00000E+01 3.36440E+02
 -1       554 3.50743E+02-1.00000E+01 3.18861E+02
 -1       555 3.62098E+02-1.00000E+01 2.69742E+02
 -1       556 3.81505E+02-1.00000E+01 2.81923E+02
 -1       557 3.56675E+02-1.00000E+01 2.99199E+02
 -1       558 3.39794E+02-1.00000E+01 2.66023E+02
 -1       559 3.64624E+02-1.00000E+01 2.48747E+02
 -1       560 4.15504E+02-1.00000E+01 2.42348E+02
 -1       561 4.30829E+02-1.00000E+01 2.56062E+02
 -1       562 4.02254E+02-1.00000E+01 2.66181E+02
 -1       563 3.96850E+02-1.00000E+01 2.32610E+02
 -1       564 4.25425E+02-1.00000E+01 2.22492E+02
 -1       565 3.73839E+02-1.00000E+01 2.27374E+02
 -1       566 3.51534E+02-1.00000E+01 2.23654E+02
 -1       567 3.83760E+02-1.00000E+01 2.07517E+02